
                                 *****************
                                 * O   R   C   A *
                                 *****************

                                            #,                                       
                                            ###                                      
                                            ####                                     
                                            #####                                    
                                            ######                                   
                                           ########,                                 
                                     ,,################,,,,,                         
                               ,,#################################,,                 
                          ,,##########################################,,             
                       ,#########################################, ''#####,          
                    ,#############################################,,   '####,        
                  ,##################################################,,,,####,       
                ,###########''''           ''''###############################       
              ,#####''   ,,,,##########,,,,          '''####'''          '####       
            ,##' ,,,,###########################,,,                        '##       
           ' ,,###''''                  '''############,,,                           
         ,,##''                                '''############,,,,        ,,,,,,###''
      ,#''                                            '''#######################'''  
     '                                                          ''''####''''         
             ,#######,   #######,   ,#######,      ##                                
            ,#'     '#,  ##    ##  ,#'     '#,    #''#        ######   ,####,        
            ##       ##  ##   ,#'  ##            #'  '#       #        #'  '#        
            ##       ##  #######   ##           ,######,      #####,   #    #        
            '#,     ,#'  ##    ##  '#,     ,#' ,#      #,         ##   #,  ,#        
             '#######'   ##     ##  '#######'  #'      '#     #####' # '####'        



                  #######################################################
                  #                        -***-                        #
                  #          Department of theory and spectroscopy      #
                  #    Directorship and core code : Frank Neese         #
                  #        Max Planck Institute fuer Kohlenforschung    #
                  #                Kaiser Wilhelm Platz 1               #
                  #                 D-45470 Muelheim/Ruhr               #
                  #                      Germany                        #
                  #                                                     #
                  #                  All rights reserved                #
                  #                        -***-                        #
                  #######################################################


                         Program Version 5.0.3 -  RELEASE  -


 With contributions from (in alphabetic order):
   Daniel Aravena         : Magnetic Suceptibility
   Michael Atanasov       : Ab Initio Ligand Field Theory (pilot matlab implementation)
   Alexander A. Auer      : GIAO ZORA, VPT2 properties, NMR spectrum
   Ute Becker             : Parallelization
   Giovanni Bistoni       : ED, misc. LED, open-shell LED, HFLD
   Martin Brehm           : Molecular dynamics
   Dmytro Bykov           : SCF Hessian
   Vijay G. Chilkuri      : MRCI spin determinant printing, contributions to CSF-ICE
   Dipayan Datta          : RHF DLPNO-CCSD density
   Achintya Kumar Dutta   : EOM-CC, STEOM-CC
   Dmitry Ganyushin       : Spin-Orbit,Spin-Spin,Magnetic field MRCI
   Miquel Garcia          : C-PCM and meta-GGA Hessian, CC/C-PCM, Gaussian charge scheme
   Yang Guo               : DLPNO-NEVPT2, F12-NEVPT2, CIM, IAO-localization
   Andreas Hansen         : Spin unrestricted coupled pair/coupled cluster methods
   Benjamin Helmich-Paris : MC-RPA, TRAH-SCF, COSX integrals
   Lee Huntington         : MR-EOM, pCC
   Robert Izsak           : Overlap fitted RIJCOSX, COSX-SCS-MP3, EOM
   Marcus Kettner         : VPT2
   Christian Kollmar      : KDIIS, OOCD, Brueckner-CCSD(T), CCSD density, CASPT2, CASPT2-K
   Simone Kossmann        : Meta GGA functionals, TD-DFT gradient, OOMP2, MP2 Hessian
   Martin Krupicka        : Initial AUTO-CI
   Lucas Lang             : DCDCAS
   Marvin Lechner         : AUTO-CI (C++ implementation), FIC-MRCC
   Dagmar Lenk            : GEPOL surface, SMD
   Dimitrios Liakos       : Extrapolation schemes; Compound Job, initial MDCI parallelization
   Dimitrios Manganas     : Further ROCIS development; embedding schemes
   Dimitrios Pantazis     : SARC Basis sets
   Anastasios Papadopoulos: AUTO-CI, single reference methods and gradients
   Taras Petrenko         : DFT Hessian,TD-DFT gradient, ASA, ECA, R-Raman, ABS, FL, XAS/XES, NRVS
   Peter Pinski           : DLPNO-MP2, DLPNO-MP2 Gradient
   Christoph Reimann      : Effective Core Potentials
   Marius Retegan         : Local ZFS, SOC
   Christoph Riplinger    : Optimizer, TS searches, QM/MM, DLPNO-CCSD(T), (RO)-DLPNO pert. Triples
   Tobias Risthaus        : Range-separated hybrids, TD-DFT gradient, RPA, STAB
   Michael Roemelt        : Original ROCIS implementation
   Masaaki Saitow         : Open-shell DLPNO-CCSD energy and density
   Barbara Sandhoefer     : DKH picture change effects
   Avijit Sen             : IP-ROCIS
   Kantharuban Sivalingam : CASSCF convergence, NEVPT2, FIC-MRCI
   Bernardo de Souza      : ESD, SOC TD-DFT
   Georgi Stoychev        : AutoAux, RI-MP2 NMR, DLPNO-MP2 response
   Willem Van den Heuvel  : Paramagnetic NMR
   Boris Wezisla          : Elementary symmetry handling
   Frank Wennmohs         : Technical directorship


 We gratefully acknowledge several colleagues who have allowed us to
 interface, adapt or use parts of their codes:
   Stefan Grimme, W. Hujo, H. Kruse, P. Pracht,  : VdW corrections, initial TS optimization,
                  C. Bannwarth, S. Ehlert          DFT functionals, gCP, sTDA/sTD-DF
   Ed Valeev, F. Pavosevic, A. Kumar             : LibInt (2-el integral package), F12 methods
   Garnet Chan, S. Sharma, J. Yang, R. Olivares  : DMRG
   Ulf Ekstrom                                   : XCFun DFT Library
   Mihaly Kallay                                 : mrcc  (arbitrary order and MRCC methods)
   Jiri Pittner, Ondrej Demel                    : Mk-CCSD
   Frank Weinhold                                : gennbo (NPA and NBO analysis)
   Christopher J. Cramer and Donald G. Truhlar   : smd solvation model
   Lars Goerigk                                  : TD-DFT with DH, B97 family of functionals
   V. Asgeirsson, H. Jonsson                     : NEB implementation
   FAccTs GmbH                                   : IRC, NEB, NEB-TS, DLPNO-Multilevel, CI-OPT
                                                   MM, QMMM, 2- and 3-layer-ONIOM, Crystal-QMMM,
                                                   LR-CPCM, SF, NACMEs, symmetry and pop. for TD-DFT,
                                                   nearIR, NL-DFT gradient (VV10), updates on ESD,
                                                   ML-optimized integration grids
   S Lehtola, MJT Oliveira, MAL Marques          : LibXC Library
   Liviu Ungur et al                             : ANISO software


 Your calculation uses the libint2 library for the computation of 2-el integrals
 For citations please refer to: http://libint.valeyev.net

 Your ORCA version has been built with support for libXC version: 5.1.0
 For citations please refer to: https://tddft.org/programs/libxc/

 This ORCA versions uses:
   CBLAS   interface :  Fast vector & matrix operations
   LAPACKE interface :  Fast linear algebra routines
   SCALAPACK package :  Parallel linear algebra routines
   Shared memory     :  Shared parallel matrices
   BLAS/LAPACK       :  OpenBLAS 0.3.15  USE64BITINT DYNAMIC_ARCH NO_AFFINITY Haswell SINGLE_THREADED
        Core in use  :  Haswell
   Copyright (c) 2011-2014, The OpenBLAS Project


Reading of a custom orbital basis requested
Basis file: ../../../../basis/aug-cc-pVQZ-CDF.bas
READING GTO-BASIS: HYDROGEN
READING GTO-BASIS: BORON
READING GTO-BASIS: CARBON
READING GTO-BASIS: NITROGEN
READING GTO-BASIS: OXYGEN
READING GTO-BASIS: FLUORINE
READING GTO-BASIS: NEON
Basis read successfully!



***************************************
The coordinates will be read from file: ../../../../../chem_database/N.xyz
***************************************


================================================================================

----- Orbital basis set information -----
Basis read from file: ../../../../basis/aug-cc-pVQZ-CDF.bas

================================================================================
                                        WARNINGS
                       Please study these warnings very carefully!
================================================================================


INFO   : the flag for use of the SHARK integral package has been found!


WARNING: TRAH-SCF with ROHF wave function is not implemented yet
  ===> : Turning TRAH off

================================================================================
                                       INPUT FILE
================================================================================
NAME = mol.inp
|  1> # ================================================================
|  2> # Orca input file
|  3> # ================================================================
|  4> ! ROHF cc-pVDZ VeryTightSCF UseSym
|  5> ! PAL4
|  6> 
|  7> %scf
|  8>   Guess = HCore
|  9>   ROHF_case SAHF    # spin averaged HF
| 10>   ROHF_NumOp   2    # 2 operators in this case: closed, open
| 11>   ROHF_NOrb[1] 3    # 3 orbitals in first open shell
| 12>   ROHF_NEl[1]  3    # 3 electrons in first open shell
| 13> end
| 14> 
| 15> %basis
| 16> GTOName = "../../../../basis/aug-cc-pVQZ-CDF.bas";
| 17> newecp N
| 18>  N_core 2
| 19>  lmax d
| 20>  d 8
| 21>   1            8.09254415           5.00000000    1
| 22>   2           22.31496159      -27887.65036500    2
| 23>   3           21.75412212       27872.28473349    2
| 24>   4           15.60260741        -129.04318573    3
| 25>   5           11.37487951         169.50590649    3
| 26>   6           17.48749502       59947.37003449    4
| 27>   7           20.46331653      -31929.67648376    4
| 28>   8           16.85586184      -43992.45435813    4
| 29>  s 8
| 30>   1            9.67339775      377787.01583122    2
| 31>   2           12.59345892     -377771.53532060    2
| 32>   3           12.02405998       -2493.59953483    3
| 33>   4           15.79660299       80726.87209849    3
| 34>   5           15.91194145      -78233.27256366    3
| 35>   6           10.11732452     -462564.14708747    4
| 36>   7            8.94704986        6544.85889870    4
| 37>   8           11.84634883     -646946.95475713    4
| 38>  p 8
| 39>   1           12.23522125       29806.22119246    2
| 40>   2           14.81129516      -29809.57373198    2
| 41>   3           12.31024823      -54825.04140647    3
| 42>   4           13.84527999      -11208.22645074    3
| 43>   5           12.57570913       66033.26785721    3
| 44>   6           13.53483660      -76565.31315879    4
| 45>   7           22.95548410      112793.35953077    4
| 46>   8           22.95523974     -113060.73051808    4
| 47> end
| 48> 
| 49> end
| 50> 
| 51> * xyzfile 0 4 ../../../../../chem_database/N.xyz
| 52> 
| 53>                          ****END OF INPUT****
================================================================================

------------------------------------------------------------------------------
                            SYMMETRY HANDLING SETUP
------------------------------------------------------------------------------

------------------
SYMMETRY DETECTION
------------------
The point group will now be determined using a tolerance of 1.0000e-04.
The Z matrix contains a single non-dummy atom.
No further testing needed for point group Kh.
This point group has been found:    Kh
Largest non-degenerate subgroup:    D2h


Symmetry-perfected Cartesians (point groups Kh and D2h):

Atom          Symmetry-perfected Cartesians (x, y, z; au)
  0       0.000000000000    0.000000000000    0.000000000000


-----------------------------------------------
SYMMETRY-PERFECTED CARTESIAN COORDINATES (A.U.)
-----------------------------------------------
Warning (ORCA_SYM): Coordinates were not cleaned so far!

------------------
SYMMETRY REDUCTION
------------------
ORCA supports only abelian point groups.
It is now checked, if the determined point group is supported:
Point Group ( D2h   ) is          ... supported

(Re)building abelian point group:
Creating Character Table          ... done
Making direct product table       ... done
Constructing symmetry operations  ... done
Creating atom transfer table      ... done
Creating asymmetric unit          ... done

----------------------
ASYMMETRIC UNIT IN D2h
----------------------
  #  AT     MASS              COORDS (A.U.)             BAS
   0 N   14.0070   0.00000000   0.00000000   0.00000000   0

----------------------
SYMMETRY ADAPTED BASIS
----------------------
The coefficients for the symmetry adapted linear combinations (SALCS)
of basis functions will now be computed:
Number of basis functions         ...    79
Preparing memory                  ... done
Constructing Gamma(red)           ... done
Reducing Gamma(red)               ... done
Constructing SALCs                ... done
Checking SALC integrity           ... nothing suspicious
Normalizing SALCs                 ... done

Storing the symmetry object:
Symmetry file                     ... mol.sym.tmp
Writing symmetry information      ... done

                       ****************************
                       * Single Point Calculation *
                       ****************************

---------------------------------
CARTESIAN COORDINATES (ANGSTROEM)
---------------------------------
  N      0.000000    0.000000    0.000000

----------------------------
CARTESIAN COORDINATES (A.U.)
----------------------------
  NO LB      ZA    FRAG     MASS         X           Y           Z
   0 N     5.0000*   0    14.007    0.000000    0.000000    0.000000
* core charge reduced due to ECP

--------------------------------
INTERNAL COORDINATES (ANGSTROEM)
--------------------------------
 N      0   0   0     0.000000000000     0.00000000     0.00000000

---------------------------
INTERNAL COORDINATES (A.U.)
---------------------------
 N      0   0   0     0.000000000000     0.00000000     0.00000000

---------------------
BASIS SET INFORMATION
---------------------
There are 1 groups of distinct atoms

 Group   1 Type N   : 14s14p4d3f2g contracted to 5s5p4d3f2g pattern {101111/101111/1111/111/11}

Atom   0N    basis set group =>   1
-------------------------
ECP PARAMETER INFORMATION
-------------------------

 Group 1, Type N  ECP (replacing 2 core electrons, lmax=2)

Atom   0N    ECP group =>   1



           ************************************************************
           *        Program running with 4 parallel MPI-processes     *
           *              working on a common directory               *
           ************************************************************
------------------------------------------------------------------------------
                           ORCA GTO INTEGRAL CALCULATION
------------------------------------------------------------------------------
------------------------------------------------------------------------------
                   ___                                                        
                  /   \      - P O W E R E D   B Y -                         
                 /     \                                                     
                 |  |  |   _    _      __       _____    __    __             
                 |  |  |  | |  | |    /  \     |  _  \  |  |  /  |          
                  \  \/   | |  | |   /    \    | | | |  |  | /  /          
                 / \  \   | |__| |  /  /\  \   | |_| |  |  |/  /          
                |  |  |   |  __  | /  /__\  \  |    /   |      \           
                |  |  |   | |  | | |   __   |  |    \   |  |\   \          
                \     /   | |  | | |  |  |  |  | |\  \  |  | \   \       
                 \___/    |_|  |_| |__|  |__|  |_| \__\ |__|  \__/        
                                                                              
                      - O R C A' S   B I G   F R I E N D -                    
                                      &                                       
                       - I N T E G R A L  F E E D E R -                       
                                                                              
 v1 FN, 2020, v2 2021                                                         
------------------------------------------------------------------------------


Reading SHARK input file mol.SHARKINP.tmp ... ok
----------------------
SHARK INTEGRAL PACKAGE
----------------------

Number of atoms                             ...      1
Number of basis functions                   ...     79
Number of shells                            ...     19
Maximum angular momentum                    ...      4
Integral batch strategy                     ... SHARK/LIBINT Hybrid
RI-J (if used) integral strategy            ... SPLIT-RIJ (Revised 2003 algorithm where possible)
Printlevel                                  ...      1
Contraction scheme used                     ... SEGMENTED contraction
Coulomb Range Separation                    ... NOT USED
Exchange Range Separation                   ... NOT USED
Finite Nucleus Model                        ... NOT USED
Auxiliary Coulomb fitting basis             ... NOT available
Auxiliary J/K fitting basis                 ... NOT available
Auxiliary Correlation fitting basis         ... NOT available
Auxiliary 'external' fitting basis          ... NOT available
Integral threshold                          ...     1.000000e-12
Primitive cut-off                           ...     1.000000e-14
Primitive pair pre-selection threshold      ...     1.000000e-14

Calculating pre-screening integrals         ... done (  0.1 sec) Dimension = 19
Organizing shell pair data                  ... done (  0.0 sec)
Shell pair information
Total number of shell pairs                 ...       190
Shell pairs after pre-screening             ...       190
Total number of primitive shell pairs       ...       793
Primitive shell pairs kept                  ...       793
          la=0 lb=0:     15 shell pairs
          la=1 lb=0:     25 shell pairs
          la=1 lb=1:     15 shell pairs
          la=2 lb=0:     20 shell pairs
          la=2 lb=1:     20 shell pairs
          la=2 lb=2:     10 shell pairs
          la=3 lb=0:     15 shell pairs
          la=3 lb=1:     15 shell pairs
          la=3 lb=2:     12 shell pairs
          la=3 lb=3:      6 shell pairs
          la=4 lb=0:     10 shell pairs
          la=4 lb=1:     10 shell pairs
          la=4 lb=2:      8 shell pairs
          la=4 lb=3:      6 shell pairs
          la=4 lb=4:      3 shell pairs

Calculating one electron integrals          ... done (  0.0 sec)
Calculating ECP integrals                   ... done (  0.1 sec)
Calculating Nuclear repulsion               ... done (  0.0 sec) ENN=      0.000000000000 Eh

SHARK setup successfully completed in   0.3 seconds

Maximum memory used throughout the entire GTOINT-calculation: 33.5 MB


           ************************************************************
           *        Program running with 4 parallel MPI-processes     *
           *              working on a common directory               *
           ************************************************************
-------------------------------------------------------------------------------
                                 ORCA SCF
-------------------------------------------------------------------------------

------------
SCF SETTINGS
------------
Hamiltonian:
 Ab initio Hamiltonian  Method          .... Hartree-Fock(GTOs)


General Settings:
 Integral files         IntName         .... mol
 Hartree-Fock type      HFTyp           .... ROHF
 Total Charge           Charge          ....    0
 Multiplicity           Mult            ....    4
 Number of Electrons    NEL             ....    5
 Basis Dimension        Dim             ....   79
 Nuclear Repulsion      ENuc            ....      0.0000000000 Eh

 Symmetry handling      UseSym         .... ON
 Point group                           .... D2h
 Used point group                      .... D2h
 Number of irreps                      .... 8
   Irrep   Ag has   19 symmetry adapted basis functions (ofs=   0)
   Irrep  B1g has    8 symmetry adapted basis functions (ofs=  19)
   Irrep  B2g has    8 symmetry adapted basis functions (ofs=  27)
   Irrep  B3g has    8 symmetry adapted basis functions (ofs=  35)
   Irrep   Au has    3 symmetry adapted basis functions (ofs=  43)
   Irrep  B1u has   11 symmetry adapted basis functions (ofs=  46)
   Irrep  B2u has   11 symmetry adapted basis functions (ofs=  57)
   Irrep  B3u has   11 symmetry adapted basis functions (ofs=  68)

Convergence Acceleration:
 DIIS                   CNVDIIS         .... on
   Start iteration      DIISMaxIt       ....    12
   Startup error        DIISStart       ....  0.200000
   # of expansion vecs  DIISMaxEq       ....     5
   Bias factor          DIISBfac        ....   1.050
   Max. coefficient     DIISMaxC        ....  10.000
 Trust-Rad. Augm. Hess. CNVTRAH         .... off
 SOSCF                  CNVSOSCF        .... off
 Level Shifting         CNVShift        .... on
   Level shift para.    LevelShift      ....    0.2500
   Turn off err/grad.   ShiftErr        ....    0.0010
 Zerner damping         CNVZerner       .... off
 Static damping         CNVDamp         .... on
   Fraction old density DampFac         ....    0.7000
   Max. Damping (<1)    DampMax         ....    0.9800
   Min. Damping (>=0)   DampMin         ....    0.0000
   Turn off err/grad.   DampErr         ....    0.1000
 Fernandez-Rico         CNVRico         .... off

SCF Procedure:
 Maximum # iterations   MaxIter         ....   125
 SCF integral mode      SCFMode         .... Direct
   Integral package                     .... SHARK and LIBINT hybrid scheme
 Reset frequency        DirectResetFreq ....    20
 Integral Threshold     Thresh          ....  1.000e-12 Eh
 Primitive CutOff       TCut            ....  1.000e-14 Eh

Convergence Tolerance:
 Convergence Check Mode ConvCheckMode   .... Total+1el-Energy
 Convergence forced     ConvForced      .... 0
 Energy Change          TolE            ....  1.000e-09 Eh
 1-El. energy change                    ....  1.000e-06 Eh
 DIIS Error             TolErr          ....  1.000e-08


Diagonalization of the overlap matrix:
Smallest eigenvalue                        ... 3.619e-03
Time for diagonalization                   ...    0.001 sec
Threshold for overlap eigenvalues          ... 1.000e-08
Number of eigenvalues below threshold      ... 0
Time for construction of square roots      ...    0.001 sec
Producing symmetrization matrix            ... done (   0.000 sec)
Total time needed                          ...    0.002 sec

--------------------
INITIAL GUESS: HCORE
--------------------
Diagonalizing the Hamiltonian                      ... done
Diagonalizing the Hamiltonian                      ... done
Back transforming the eigenvectors                 ... done
AVERAGE-CONFIGURATION (SAHF) CASE FOUND

-------------------
FINAL ROHF SETTINGS
-------------------
Number of operators             ... 2
  operator   0:   1 orbitals   2 electrons n(mue)= 2.000
  operator   1:   3 orbitals   3 electrons n(mue)= 1.000
Vector coupling coefficients a and b (Zerner convention):
   1.000    1.000           1.000    1.000 
   1.000    1.000           1.000    2.000 

Occupation of irreps:
Operator 0
    Ag occ= 1
   B1g occ= 0
   B2g occ= 0
   B3g occ= 0
    Au occ= 0
   B1u occ= 0
   B2u occ= 0
   B3u occ= 0
Operator 1
    Ag occ= 0
   B1g occ= 0
   B2g occ= 0
   B3g occ= 0
    Au occ= 0
   B1u occ= 1
   B2u occ= 1
   B3u occ= 1

                      -----------------
                      INTIAL GUESS DONE 
                      -----------------
--------------
SCF ITERATIONS
--------------
ITER       Energy         Delta-E        Max-DP      RMS-DP      [F,P]     Damp
               ***  Starting incremental Fock matrix formation  ***
  0     -8.6286723242   0.000000000000 0.78969855  0.01501286  0.5642717 0.7000
                            ****Activating DIIS****
  1     -8.3303798098   0.298292514359 1.61010497  0.02922308  0.0665580 0.0000
  2     -8.3584899520  -0.028110142204 0.15811406  0.00301586  0.2307237 0.7000
  3     -7.7572036085   0.601286343551 0.10987285  0.00209284  0.1864762 0.7000
  4     -7.6625460202   0.094657588308 0.07652099  0.00145582  0.1936186 0.7000
  5     -7.5962209243   0.066325095900 0.06938791  0.00133238  0.2072920 0.7000
  6     -7.5101510308   0.086069893440 0.47314382  0.00961689  0.2062298 0.7000
  7     -9.0737866971  -1.563635666274 0.97670230  0.02063458  0.0492193 0.0000
  8     -9.4527072457  -0.378920548587 0.00877504  0.00014910  0.2081067 0.7000
  9     -9.4616517326  -0.008944486937 0.00620846  0.00009818  0.1925866 0.7000
 10     -9.4620829047  -0.000431172031 0.00296552  0.00004267  0.1924863 0.7000
 11     -9.4603657479   0.001717156811 0.02859646  0.00056081  0.1949308 0.7000
 12     -9.4220176459   0.038348101987 0.12810338  0.00261394  0.2479398 0.7000
 13     -9.5685048679  -0.146487222004 0.42155589  0.00814664  0.0367323 0.0000
 14     -9.6437527750  -0.075247907098 0.05145250  0.00060278  0.0279657 0.0000
 15     -9.6449542341  -0.001201459088 0.01599262  0.00030155  0.0048044 0.0000
 16     -9.6452708393  -0.000316605270 0.00392396  0.00008527  0.0023296 0.0000
 17     -9.6452930610  -0.000022221693 0.00111178  0.00001459  0.0006152 0.0000
 18     -9.6452942657  -0.000001204704 0.00028344  0.00000530  0.0001549 0.0000
 19     -9.6452943521  -0.000000086404 0.00009462  0.00000138  0.0000318 0.0000
               *** Restarting incremental Fock matrix formation ***
                                   *** Resetting DIIS ***
 20     -9.6452943557  -0.000000003523 0.00003256  0.00000059  0.0000138 0.0000
                 **** Energy Check signals convergence ****

               *****************************************************
               *                     SUCCESS                       *
               *           SCF CONVERGED AFTER  21 CYCLES          *
               *****************************************************


----------------
TOTAL SCF ENERGY
----------------

Total Energy       :           -9.64529436 Eh            -262.46180 eV

Components:
Nuclear Repulsion  :            0.00000000 Eh               0.00000 eV
Electronic Energy  :           -9.64529436 Eh            -262.46180 eV
One Electron Energy:          -15.69519013 Eh            -427.08784 eV
Two Electron Energy:            6.04989578 Eh             164.62603 eV

Virial components:
Potential Energy   :          -16.38402390 Eh            -445.83196 eV
Kinetic Energy     :            6.73872954 Eh             183.37015 eV
Virial Ratio       :            2.43132237


---------------
SCF CONVERGENCE
---------------

  Last Energy change         ...   -5.6643e-10  Tolerance :   1.0000e-09
  Last MAX-Density change    ...    2.3325e-05  Tolerance :   1.0000e-08
  Last RMS-Density change    ...    4.5793e-07  Tolerance :   1.0000e-09
  Last DIIS Error            ...    7.2902e-06  Tolerance :   1.0000e-08

             **** THE GBW FILE WAS UPDATED (mol.gbw) ****
             **** DENSITY mol.scfp WAS UPDATED ****
             **** ENERGY FILE WAS UPDATED (mol.en.tmp) ****
             **** THE GBW FILE WAS UPDATED (mol.gbw) ****
             **** DENSITY mol.scfp WAS UPDATED ****
----------------
ORBITAL ENERGIES
----------------

  NO   OCC          E(Eh)            E(eV)    Irrep 
   0   2.0000      -0.946537       -25.7566    1-Ag
   1   1.0000      -0.567442       -15.4409    1-B1u
   2   1.0000      -0.567442       -15.4409    1-B2u
   3   1.0000      -0.567442       -15.4409    1-B3u
   4   0.0000       0.111899         3.0449    2-B2u
   5   0.0000       0.111899         3.0449    2-B1u
   6   0.0000       0.111899         3.0449    2-B3u
   7   0.0000       0.126717         3.4481    2-Ag
   8   0.0000       0.344767         9.3816    1-B2g
   9   0.0000       0.344767         9.3816    3-Ag
  10   0.0000       0.344767         9.3816    1-B3g
  11   0.0000       0.344767         9.3816    4-Ag
  12   0.0000       0.344767         9.3816    1-B1g
  13   0.0000       0.565777        15.3956    3-B3u
  14   0.0000       0.565777        15.3956    3-B1u
  15   0.0000       0.565777        15.3956    3-B2u
  16   0.0000       0.717648        19.5282    5-Ag
  17   0.0000       1.011249        27.5175    4-B1u
  18   0.0000       1.011249        27.5175    4-B2u
  19   0.0000       1.011249        27.5175    5-B2u
  20   0.0000       1.011249        27.5175    4-B3u
  21   0.0000       1.011249        27.5175    5-B1u
  22   0.0000       1.011249        27.5175    1-Au
  23   0.0000       1.011249        27.5175    5-B3u
  24   0.0000       1.119252        30.4564    6-Ag
  25   0.0000       1.119252        30.4564    7-Ag
  26   0.0000       1.119252        30.4564    2-B2g
  27   0.0000       1.119252        30.4564    2-B3g
  28   0.0000       1.119252        30.4564    2-B1g
  29   0.0000       2.085988        56.7626    6-B2u
  30   0.0000       2.085988        56.7626    6-B1u
  31   0.0000       2.085988        56.7626    6-B3u
  32   0.0000       2.808775        76.4307    3-B1g
  33   0.0000       2.808775        76.4307    8-Ag
  34   0.0000       2.808775        76.4307    3-B2g
  35   0.0000       2.808775        76.4307    9-Ag
  36   0.0000       2.808775        76.4307    4-B1g
  37   0.0000       2.808775        76.4307   10-Ag
  38   0.0000       2.808775        76.4307    3-B3g
  39   0.0000       2.808775        76.4307    4-B2g
  40   0.0000       2.808775        76.4307    4-B3g
  41   0.0000       3.014563        82.0304   11-Ag
  42   0.0000       3.101239        84.3890    7-B2u
  43   0.0000       3.101239        84.3890    7-B3u
  44   0.0000       3.101239        84.3890    8-B2u
  45   0.0000       3.101239        84.3890    8-B3u
  46   0.0000       3.101239        84.3890    7-B1u
  47   0.0000       3.101239        84.3890    2-Au
  48   0.0000       3.101239        84.3890    8-B1u
  49   0.0000       3.259417        88.6932    5-B1g
  50   0.0000       3.259417        88.6932    5-B2g
  51   0.0000       3.259417        88.6932   12-Ag
  52   0.0000       3.259417        88.6932   13-Ag
  53   0.0000       3.259417        88.6932    5-B3g
  54   0.0000       7.665170       208.5799    9-B1u
  55   0.0000       7.665170       208.5799    9-B2u
  56   0.0000       7.665170       208.5799    9-B3u
  57   0.0000       8.135886       221.3887    6-B3g
  58   0.0000       8.135886       221.3887    6-B1g
  59   0.0000       8.135886       221.3887    6-B2g
  60   0.0000       8.135886       221.3887   14-Ag
  61   0.0000       8.135886       221.3887    7-B1g
  62   0.0000       8.135886       221.3887    7-B2g
  63   0.0000       8.135886       221.3887   15-Ag
  64   0.0000       8.135886       221.3887   16-Ag
  65   0.0000       8.135886       221.3887    7-B3g
  66   0.0000       8.859405       241.0767   10-B1u
  67   0.0000       8.859405       241.0767   10-B2u
  68   0.0000       8.859405       241.0767   11-B2u
  69   0.0000       8.859405       241.0767    3-Au
  70   0.0000       8.859405       241.0767   11-B1u
  71   0.0000       8.859405       241.0767   10-B3u
  72   0.0000       8.859405       241.0767   11-B3u
  73   0.0000       9.646758       262.5016   17-Ag
  74   0.0000       9.646758       262.5016    8-B2g
  75   0.0000       9.646758       262.5016    8-B3g
  76   0.0000       9.646758       262.5016    8-B1g
  77   0.0000       9.646758       262.5016   18-Ag
  78   0.0000      12.833922       349.2288   19-Ag

                    ********************************
                    * MULLIKEN POPULATION ANALYSIS *
                    ********************************

--------------------------------------------
MULLIKEN ATOMIC CHARGES AND SPIN POPULATIONS
--------------------------------------------
   0 N :   -0.000000    3.000000
Sum of atomic charges         :   -0.0000000
Sum of atomic spin populations:    3.0000000

-----------------------------------------------------
MULLIKEN REDUCED ORBITAL CHARGES AND SPIN POPULATIONS
-----------------------------------------------------
CHARGE
  0 N s       :     2.000000  s :     2.000000
      pz      :     1.000000  p :     3.000000
      px      :     1.000000
      py      :     1.000000
      dz2     :     0.000000  d :     0.000000
      dxz     :     0.000000
      dyz     :     0.000000
      dx2y2   :     0.000000
      dxy     :     0.000000
      f0      :     0.000000  f :     0.000000
      f+1     :     0.000000
      f-1     :     0.000000
      f+2     :     0.000000
      f-2     :     0.000000
      f+3     :     0.000000
      f-3     :     0.000000
      g0      :     0.000000  g :     0.000000
      g+1     :     0.000000
      g-1     :     0.000000
      g+2     :     0.000000
      g-2     :     0.000000
      g+3     :     0.000000
      g-3     :     0.000000
      g+4     :     0.000000
      g-4     :     0.000000

SPIN
  0 N s       :     0.000000  s :     0.000000
      pz      :     1.000000  p :     3.000000
      px      :     1.000000
      py      :     1.000000
      dz2     :     0.000000  d :     0.000000
      dxz     :     0.000000
      dyz     :     0.000000
      dx2y2   :     0.000000
      dxy     :     0.000000
      f0      :     0.000000  f :     0.000000
      f+1     :     0.000000
      f-1     :     0.000000
      f+2     :     0.000000
      f-2     :     0.000000
      f+3     :     0.000000
      f-3     :     0.000000
      g0      :     0.000000  g :     0.000000
      g+1     :     0.000000
      g-1     :     0.000000
      g+2     :     0.000000
      g-2     :     0.000000
      g+3     :     0.000000
      g-3     :     0.000000
      g+4     :     0.000000
      g-4     :     0.000000


                     *******************************
                     * LOEWDIN POPULATION ANALYSIS *
                     *******************************

-------------------------------------------
LOEWDIN ATOMIC CHARGES AND SPIN POPULATIONS
-------------------------------------------
   0 N :   -0.000000    3.000000

----------------------------------------------------
LOEWDIN REDUCED ORBITAL CHARGES AND SPIN POPULATIONS
----------------------------------------------------
CHARGE
  0 N s       :     2.000000  s :     2.000000
      pz      :     1.000000  p :     3.000000
      px      :     1.000000
      py      :     1.000000
      dz2     :     0.000000  d :     0.000000
      dxz     :     0.000000
      dyz     :     0.000000
      dx2y2   :     0.000000
      dxy     :     0.000000
      f0      :     0.000000  f :     0.000000
      f+1     :     0.000000
      f-1     :     0.000000
      f+2     :     0.000000
      f-2     :     0.000000
      f+3     :     0.000000
      f-3     :     0.000000
      g0      :     0.000000  g :     0.000000
      g+1     :     0.000000
      g-1     :     0.000000
      g+2     :     0.000000
      g-2     :     0.000000
      g+3     :     0.000000
      g-3     :     0.000000
      g+4     :     0.000000
      g-4     :     0.000000

SPIN
  0 N s       :     0.000000  s :     0.000000
      pz      :     1.000000  p :     3.000000
      px      :     1.000000
      py      :     1.000000
      dz2     :     0.000000  d :     0.000000
      dxz     :     0.000000
      dyz     :     0.000000
      dx2y2   :     0.000000
      dxy     :     0.000000
      f0      :     0.000000  f :     0.000000
      f+1     :     0.000000
      f-1     :     0.000000
      f+2     :     0.000000
      f-2     :     0.000000
      f+3     :     0.000000
      f-3     :     0.000000
      g0      :     0.000000  g :     0.000000
      g+1     :     0.000000
      g-1     :     0.000000
      g+2     :     0.000000
      g-2     :     0.000000
      g+3     :     0.000000
      g-3     :     0.000000
      g+4     :     0.000000
      g-4     :     0.000000


                      *****************************
                      * MAYER POPULATION ANALYSIS *
                      *****************************

  NA   - Mulliken gross atomic population
  ZA   - Total nuclear charge
  QA   - Mulliken gross atomic charge
  VA   - Mayer's total valence
  BVA  - Mayer's bonded valence
  FA   - Mayer's free valence

  ATOM       NA         ZA         QA         VA         BVA        FA
  0 N      5.0000     5.0000    -0.0000     3.0000     0.0000     3.0000

  Mayer bond orders larger than 0.100000



Warning: MO coefficients are modified such that the real solid harmonic m components
have the correct order within each shell (0, +1, -1, +2, -2, ...) and all s orbitals
come before all p orbitals etc. (with increasing orbital energy within each block of given angular momentum).

--------------------------
ATOM BASIS FOR ELEMENT N 
--------------------------
 NewGTO N 
 S 14
    1         43.457270000000        -0.003150621521
    2         27.098980000000         0.022277323861
    3         16.753800000000        -0.089957193588
    4         10.474740000000         0.225758879952
    5          6.551140000000        -0.258169986458
    6          2.625780000000        -0.048287199337
    7          1.179670000000         0.167152920191
    8          0.604550000000         0.388277356871
    9          0.281710000000         0.444657584006
   10          0.123200000000         0.146919350817
   11          1.163700000000        -0.000077613070
   12          0.421400000000         0.000214582999
   13          0.152600000000        -0.000257803135
   14          0.068400000000         0.000298291138
 S 14
    1         43.457270000000        -0.001156183877
    2         27.098980000000         0.008175111638
    3         16.753800000000        -0.033011599812
    4         10.474740000000         0.082846757460
    5          6.551140000000        -0.094740664271
    6          2.625780000000        -0.017719958093
    7          1.179670000000         0.061340122881
    8          0.604550000000         0.142486178257
    9          0.281710000000         0.163176035524
   10          0.123200000000         0.053915008021
   11          1.163700000000         0.087905495809
   12          0.421400000000        -0.454750101172
   13          0.152600000000         1.630629248267
   14          0.068400000000        -2.156334793415
 S 14
    1         43.457270000000        -0.000845173899
    2         27.098980000000         0.005976031250
    3         16.753800000000        -0.024131578972
    4         10.474740000000         0.060561229435
    5          6.551140000000        -0.069255711167
    6          2.625780000000        -0.012953342781
    7          1.179670000000         0.044839814729
    8          0.604550000000         0.104157825814
    9          0.281710000000         0.119282173844
   10          0.123200000000         0.039412033384
   11          1.163700000000        -0.340781951228
   12          0.421400000000         2.443689481178
   13          0.152600000000        -4.235730429301
   14          0.068400000000         2.017962780298
 S 14
    1         43.457270000000        -0.011854258419
    2         27.098980000000         0.083818748831
    3         16.753800000000        -0.338465224185
    4         10.474740000000         0.849421006444
    5          6.551140000000        -0.971368257044
    6          2.625780000000        -0.181681276360
    7          1.179670000000         0.628915246784
    8          0.604550000000         1.460899094303
    9          0.281710000000         1.673030503205
   10          0.123200000000         0.552786153366
   11          1.163700000000         2.294394250001
   12          0.421400000000        -6.507272222940
   13          0.152600000000         1.769105323890
   14          0.068400000000        -1.046831594139
 S 14
    1         43.457270000000        -0.036959859987
    2         27.098980000000         0.261334712949
    3         16.753800000000        -1.055285523095
    4         10.474740000000         2.648371611212
    5          6.551140000000        -3.028585467596
    6          2.625780000000        -0.566455892838
    7          1.179670000000         1.960866605375
    8          0.604550000000         4.554871681824
    9          0.281710000000         5.216266675497
   10          0.123200000000         1.723507123722
   11          1.163700000000        -0.581772218068
   12          0.421400000000        -9.149052692776
   13          0.152600000000        -2.196800904429
   14          0.068400000000        -0.405434664094
 P 14
    1         36.960660000000        -0.000903949739
    2         23.086910000000         0.007005610478
    3         14.421730000000        -0.032205209343
    4          9.016140000000         0.068943166659
    5          3.905100000000         0.076916723317
    6          2.022640000000         0.152717508682
    7          0.999510000000         0.268622064219
    8          0.467830000000         0.342644948438
    9          0.210990000000         0.272071872405
   10          0.090700000000         0.081328478017
   11          1.104200000000        -0.000052295833
   12          0.397700000000         0.000143688793
   13          0.143200000000        -0.000205767363
   14          0.043800000000         0.000339849141
 P 14
    1         36.960660000000        -0.000131259542
    2         23.086910000000         0.001017261450
    3         14.421730000000        -0.004676411580
    4          9.016140000000         0.010011008452
    5          3.905100000000         0.011168822155
    6          2.022640000000         0.022175602664
    7          0.999510000000         0.039005718560
    8          0.467830000000         0.049754335942
    9          0.210990000000         0.039506653759
   10          0.090700000000         0.011809438415
   11          1.104200000000         0.039593744146
   12          0.397700000000        -0.104160228637
   13          0.143200000000         0.455382132711
   14          0.043800000000        -1.245463724200
 P 14
    1         36.960660000000        -0.000652823261
    2         23.086910000000         0.005059380276
    3         14.421730000000        -0.023258272987
    4          9.016140000000         0.049790050227
    5          3.905100000000         0.055548471340
    6          2.022640000000         0.110291023698
    7          0.999510000000         0.193996108935
    8          0.467830000000         0.247454679259
    9          0.210990000000         0.196487525143
   10          0.090700000000         0.058734595488
   11          1.104200000000        -0.202431854614
   12          0.397700000000         0.692478016931
   13          0.143200000000        -2.055825808205
   14          0.043800000000         0.742903272013
 P 14
    1         36.960660000000        -0.000872703283
    2         23.086910000000         0.006763450446
    3         14.421730000000        -0.031091985228
    4          9.016140000000         0.066560036809
    5          3.905100000000         0.074257974842
    6          2.022640000000         0.147438585895
    7          0.999510000000         0.259336716729
    8          0.467830000000         0.330800882608
    9          0.210990000000         0.262667276826
   10          0.090700000000         0.078517230246
   11          1.104200000000         0.989780129587
   12          0.397700000000        -2.613036903633
   13          0.143200000000         1.014496267021
   14          0.043800000000        -0.363669138363
 P 14
    1         36.960660000000        -0.006902288116
    2         23.086910000000         0.053492732900
    3         14.421730000000        -0.245909284688
    4          9.016140000000         0.526429268524
    5          3.905100000000         0.587312947107
    6          2.022640000000         1.166104927910
    7          0.999510000000         2.051117226399
    8          0.467830000000         2.616333689205
    9          0.210990000000         2.077458923303
   10          0.090700000000         0.620999778045
   11          1.104200000000        -4.671097493603
   12          0.397700000000        -2.071833511657
   13          0.143200000000        -2.318573393157
   14          0.043800000000         0.081572162471
 D 4
    1          2.864600000000        -0.008175524898
    2          0.990800000000         0.066271190877
    3          0.342700000000        -0.182469609525
    4          0.112800000000         1.091385867592
 D 4
    1          2.864600000000         0.056535730989
    2          0.990800000000        -0.120377758081
    3          0.342700000000         1.320437437763
    4          0.112800000000        -0.663119312341
 D 4
    1          2.864600000000        -0.058337651910
    2          0.990800000000         1.397440543973
    3          0.342700000000        -1.044286902817
    4          0.112800000000         0.346398764485
 D 4
    1          2.864600000000         1.373281589913
    2          0.990800000000        -1.153019659211
    3          0.342700000000         0.533106769810
    4          0.112800000000        -0.166455786370
 F 3
    1          1.960000000000         0.039256300577
    2          0.674800000000        -0.196615122392
    3          0.247200000000         1.099070206423
 F 3
    1          1.960000000000        -0.113717795767
    2          0.674800000000         1.290628706711
    3          0.247200000000        -0.594218279959
 F 3
    1          1.960000000000         1.232809516963
    2          0.674800000000        -0.755480079640
    3          0.247200000000         0.264535405185
 G 2
    1          1.416400000000         0.166998368435
    2          0.555100000000        -1.083637187601
 G 2
    1          1.416400000000         1.193969041029
    2          0.555100000000        -0.528375786389
 end
-------------------------------------------
RADIAL EXPECTATION VALUES <R**-3> TO <R**3>
-------------------------------------------
   0 :     0.000000     1.171162     0.927331     1.336052     2.148669     4.088200
   1 :     0.000000     0.118409     0.265832     4.394789    20.767637   103.650714
   2 :     0.000000     0.458791     0.484992     3.039906    11.851689    55.285939
   3 :     0.000000     1.812953     1.018287     1.616232     4.104262    15.001871
   4 :     0.000000    14.874515     2.940051     0.594663     0.746050     1.900457
   5 :     2.572107     1.271761     0.949702     1.410728     2.549811     5.688198
   6 :     2.572107     1.271761     0.949702     1.410728     2.549811     5.688198
   7 :     2.572107     1.271761     0.949702     1.410728     2.549811     5.688198
   8 :     0.074653     0.065676     0.198407     5.766382    35.561281   231.759898
   9 :     0.074653     0.065676     0.198407     5.766382    35.561281   231.759898
  10 :     0.074653     0.065676     0.198407     5.766382    35.561281   231.759898
  11 :     0.829445     0.412812     0.444202     3.417382    14.956799    80.006841
  12 :     0.829445     0.412812     0.444202     3.417382    14.956799    80.006841
  13 :     0.829445     0.412812     0.444202     3.417382    14.956799    80.006841
  14 :     3.199301     1.359461     0.900896     1.851546     5.281456    21.818866
  15 :     3.199301     1.359461     0.900896     1.851546     5.281456    21.818866
  16 :     3.199301     1.359461     0.900896     1.851546     5.281456    21.818866
  17 :    17.956961     4.870999     1.818171     0.944290     1.678541     5.347476
  18 :    17.956961     4.870999     1.818171     0.944290     1.678541     5.347476
  19 :    17.956961     4.870999     1.818171     0.944290     1.678541     5.347476
  20 :     0.026237     0.078809     0.268676     3.987666    16.866763   376.010597
  21 :     0.026237     0.078809     0.268676     3.987666    16.866763   376.010597
  22 :     0.026237     0.078809     0.268676     3.987666    16.866763   376.010597
  23 :     0.026237     0.078809     0.268676     3.987666    16.866763   376.010597
  24 :     0.026237     0.078809     0.268676     3.987666    16.866763   376.010597
  25 :     0.182617     0.271495     0.482798     2.449080     7.295760   132.690650
  26 :     0.182617     0.271495     0.482798     2.449080     7.295760   132.690650
  27 :     0.182617     0.271495     0.482798     2.449080     7.295760   132.690650
  28 :     0.182617     0.271495     0.482798     2.449080     7.295760   132.690650
  29 :     0.182617     0.271495     0.482798     2.449080     7.295760   132.690650
  30 :     0.822911     0.759607     0.804130     1.552759     3.240330    46.478655
  31 :     0.822911     0.759607     0.804130     1.552759     3.240330    46.478655
  32 :     0.822911     0.759607     0.804130     1.552759     3.240330    46.478655
  33 :     0.822911     0.759607     0.804130     1.552759     3.240330    46.478655
  34 :     0.822911     0.759607     0.804130     1.552759     3.240330    46.478655
  35 :     4.548454     2.338809     1.399189     0.923767     1.247108    13.385846
  36 :     4.548454     2.338809     1.399189     0.923767     1.247108    13.385846
  37 :     4.548454     2.338809     1.399189     0.923767     1.247108    13.385846
  38 :     4.548454     2.338809     1.399189     0.923767     1.247108    13.385846
  39 :     4.548454     2.338809     1.399189     0.923767     1.247108    13.385846
  40 :     0.046485     0.121777     0.340027     3.080827     9.909995   232.387642
  41 :     0.046485     0.121777     0.340027     3.080827     9.909995   232.387642
  42 :     0.046485     0.121777     0.340027     3.080827     9.909995   232.387642
  43 :     0.046485     0.121777     0.340027     3.080827     9.909995   232.387642
  44 :     0.046485     0.121777     0.340027     3.080827     9.909995   232.387642
  45 :     0.046485     0.121777     0.340027     3.080827     9.909995   232.387642
  46 :     0.046485     0.121777     0.340027     3.080827     9.909995   232.387642
  47 :     0.244467     0.363163     0.578564     1.917923     4.204175    75.325733
  48 :     0.244467     0.363163     0.578564     1.917923     4.204175    75.325733
  49 :     0.244467     0.363163     0.578564     1.917923     4.204175    75.325733
  50 :     0.244467     0.363163     0.578564     1.917923     4.204175    75.325733
  51 :     0.244467     0.363163     0.578564     1.917923     4.204175    75.325733
  52 :     0.244467     0.363163     0.578564     1.917923     4.204175    75.325733
  53 :     0.244467     0.363163     0.578564     1.917923     4.204175    75.325733
  54 :     1.453897     1.161917     1.021311     1.133903     1.594307    20.799333
  55 :     1.453897     1.161917     1.021311     1.133903     1.594307    20.799333
  56 :     1.453897     1.161917     1.021311     1.133903     1.594307    20.799333
  57 :     1.453897     1.161917     1.021311     1.133903     1.594307    20.799333
  58 :     1.453897     1.161917     1.021311     1.133903     1.594307    20.799333
  59 :     1.453897     1.161917     1.021311     1.133903     1.594307    20.799333
  60 :     1.453897     1.161917     1.021311     1.133903     1.594307    20.799333
  61 :     0.108552     0.218694     0.458686     2.262914     5.307580    90.189796
  62 :     0.108552     0.218694     0.458686     2.262914     5.307580    90.189796
  63 :     0.108552     0.218694     0.458686     2.262914     5.307580    90.189796
  64 :     0.108552     0.218694     0.458686     2.262914     5.307580    90.189796
  65 :     0.108552     0.218694     0.458686     2.262914     5.307580    90.189796
  66 :     0.108552     0.218694     0.458686     2.262914     5.307580    90.189796
  67 :     0.108552     0.218694     0.458686     2.262914     5.307580    90.189796
  68 :     0.108552     0.218694     0.458686     2.262914     5.307580    90.189796
  69 :     0.108552     0.218694     0.458686     2.262914     5.307580    90.189796
  70 :     0.592931     0.657528     0.781304     1.398554     2.184809    27.256306
  71 :     0.592931     0.657528     0.781304     1.398554     2.184809    27.256306
  72 :     0.592931     0.657528     0.781304     1.398554     2.184809    27.256306
  73 :     0.592931     0.657528     0.781304     1.398554     2.184809    27.256306
  74 :     0.592931     0.657528     0.781304     1.398554     2.184809    27.256306
  75 :     0.592931     0.657528     0.781304     1.398554     2.184809    27.256306
  76 :     0.592931     0.657528     0.781304     1.398554     2.184809    27.256306
  77 :     0.592931     0.657528     0.781304     1.398554     2.184809    27.256306
  78 :     0.592931     0.657528     0.781304     1.398554     2.184809    27.256306
-------
TIMINGS
-------

Total SCF time: 0 days 0 hours 0 min 2 sec 

Total time                  ....       2.120 sec
Sum of individual times     ....       1.873 sec  ( 88.4%)

Fock matrix formation       ....       1.771 sec  ( 83.6%)
Diagonalization             ....       0.038 sec  (  1.8%)
Density matrix formation    ....       0.017 sec  (  0.8%)
Population analysis         ....       0.010 sec  (  0.5%)
Initial guess               ....       0.002 sec  (  0.1%)
Orbital Transformation      ....       0.000 sec  (  0.0%)
Orbital Orthonormalization  ....       0.000 sec  (  0.0%)
DIIS solution               ....       0.035 sec  (  1.7%)

Maximum memory used throughout the entire SCF-calculation: 228.3 MB

-------------------------   --------------------
FINAL SINGLE POINT ENERGY        -9.645294356218
-------------------------   --------------------


                            ***************************************
                            *     ORCA property calculations      *
                            ***************************************

                                    ---------------------
                                    Active property flags
                                    ---------------------
   (+) Dipole Moment


------------------------------------------------------------------------------
                       ORCA ELECTRIC PROPERTIES CALCULATION
------------------------------------------------------------------------------

Dipole Moment Calculation                       ... on
Quadrupole Moment Calculation                   ... off
Polarizability Calculation                      ... off
GBWName                                         ... mol.gbw
Electron density                                ... mol.scfp
The origin for moment calculation is the CENTER OF MASS  = ( 0.000000,  0.000000  0.000000)

-------------
DIPOLE MOMENT
-------------
                                X             Y             Z
Electronic contribution:      0.00000      -0.00000      -0.00000
Nuclear contribution   :      0.00000       0.00000       0.00000
                        -----------------------------------------
Total Dipole Moment    :      0.00000      -0.00000      -0.00000
                        -----------------------------------------
Magnitude (a.u.)       :      0.00000
Magnitude (Debye)      :      0.00000



--------------------
Rotational spectrum 
--------------------
 
Rotational constants in cm-1:     0.000000     0.000000     0.000000 
Rotational constants in MHz :     0.000000     0.000000     0.000000 

 Dipole components along the rotational axes: 
x,y,z [a.u.] :     0.000000    -0.000000    -0.000000 
x,y,z [Debye]:     0.000000    -0.000000    -0.000000 

 

Timings for individual modules:

Sum of individual times         ...        3.295 sec (=   0.055 min)
GTO integral calculation        ...        0.718 sec (=   0.012 min)  21.8 %
SCF iterations                  ...        2.577 sec (=   0.043 min)  78.2 %
                             ****ORCA TERMINATED NORMALLY****
TOTAL RUN TIME: 0 days 0 hours 0 minutes 3 seconds 823 msec
