
                                 *****************
                                 * O   R   C   A *
                                 *****************

                                            #,                                       
                                            ###                                      
                                            ####                                     
                                            #####                                    
                                            ######                                   
                                           ########,                                 
                                     ,,################,,,,,                         
                               ,,#################################,,                 
                          ,,##########################################,,             
                       ,#########################################, ''#####,          
                    ,#############################################,,   '####,        
                  ,##################################################,,,,####,       
                ,###########''''           ''''###############################       
              ,#####''   ,,,,##########,,,,          '''####'''          '####       
            ,##' ,,,,###########################,,,                        '##       
           ' ,,###''''                  '''############,,,                           
         ,,##''                                '''############,,,,        ,,,,,,###''
      ,#''                                            '''#######################'''  
     '                                                          ''''####''''         
             ,#######,   #######,   ,#######,      ##                                
            ,#'     '#,  ##    ##  ,#'     '#,    #''#        ######   ,####,        
            ##       ##  ##   ,#'  ##            #'  '#       #        #'  '#        
            ##       ##  #######   ##           ,######,      #####,   #    #        
            '#,     ,#'  ##    ##  '#,     ,#' ,#      #,         ##   #,  ,#        
             '#######'   ##     ##  '#######'  #'      '#     #####' # '####'        



                  #######################################################
                  #                        -***-                        #
                  #          Department of theory and spectroscopy      #
                  #    Directorship and core code : Frank Neese         #
                  #        Max Planck Institute fuer Kohlenforschung    #
                  #                Kaiser Wilhelm Platz 1               #
                  #                 D-45470 Muelheim/Ruhr               #
                  #                      Germany                        #
                  #                                                     #
                  #                  All rights reserved                #
                  #                        -***-                        #
                  #######################################################


                         Program Version 5.0.3 -  RELEASE  -


 With contributions from (in alphabetic order):
   Daniel Aravena         : Magnetic Suceptibility
   Michael Atanasov       : Ab Initio Ligand Field Theory (pilot matlab implementation)
   Alexander A. Auer      : GIAO ZORA, VPT2 properties, NMR spectrum
   Ute Becker             : Parallelization
   Giovanni Bistoni       : ED, misc. LED, open-shell LED, HFLD
   Martin Brehm           : Molecular dynamics
   Dmytro Bykov           : SCF Hessian
   Vijay G. Chilkuri      : MRCI spin determinant printing, contributions to CSF-ICE
   Dipayan Datta          : RHF DLPNO-CCSD density
   Achintya Kumar Dutta   : EOM-CC, STEOM-CC
   Dmitry Ganyushin       : Spin-Orbit,Spin-Spin,Magnetic field MRCI
   Miquel Garcia          : C-PCM and meta-GGA Hessian, CC/C-PCM, Gaussian charge scheme
   Yang Guo               : DLPNO-NEVPT2, F12-NEVPT2, CIM, IAO-localization
   Andreas Hansen         : Spin unrestricted coupled pair/coupled cluster methods
   Benjamin Helmich-Paris : MC-RPA, TRAH-SCF, COSX integrals
   Lee Huntington         : MR-EOM, pCC
   Robert Izsak           : Overlap fitted RIJCOSX, COSX-SCS-MP3, EOM
   Marcus Kettner         : VPT2
   Christian Kollmar      : KDIIS, OOCD, Brueckner-CCSD(T), CCSD density, CASPT2, CASPT2-K
   Simone Kossmann        : Meta GGA functionals, TD-DFT gradient, OOMP2, MP2 Hessian
   Martin Krupicka        : Initial AUTO-CI
   Lucas Lang             : DCDCAS
   Marvin Lechner         : AUTO-CI (C++ implementation), FIC-MRCC
   Dagmar Lenk            : GEPOL surface, SMD
   Dimitrios Liakos       : Extrapolation schemes; Compound Job, initial MDCI parallelization
   Dimitrios Manganas     : Further ROCIS development; embedding schemes
   Dimitrios Pantazis     : SARC Basis sets
   Anastasios Papadopoulos: AUTO-CI, single reference methods and gradients
   Taras Petrenko         : DFT Hessian,TD-DFT gradient, ASA, ECA, R-Raman, ABS, FL, XAS/XES, NRVS
   Peter Pinski           : DLPNO-MP2, DLPNO-MP2 Gradient
   Christoph Reimann      : Effective Core Potentials
   Marius Retegan         : Local ZFS, SOC
   Christoph Riplinger    : Optimizer, TS searches, QM/MM, DLPNO-CCSD(T), (RO)-DLPNO pert. Triples
   Tobias Risthaus        : Range-separated hybrids, TD-DFT gradient, RPA, STAB
   Michael Roemelt        : Original ROCIS implementation
   Masaaki Saitow         : Open-shell DLPNO-CCSD energy and density
   Barbara Sandhoefer     : DKH picture change effects
   Avijit Sen             : IP-ROCIS
   Kantharuban Sivalingam : CASSCF convergence, NEVPT2, FIC-MRCI
   Bernardo de Souza      : ESD, SOC TD-DFT
   Georgi Stoychev        : AutoAux, RI-MP2 NMR, DLPNO-MP2 response
   Willem Van den Heuvel  : Paramagnetic NMR
   Boris Wezisla          : Elementary symmetry handling
   Frank Wennmohs         : Technical directorship


 We gratefully acknowledge several colleagues who have allowed us to
 interface, adapt or use parts of their codes:
   Stefan Grimme, W. Hujo, H. Kruse, P. Pracht,  : VdW corrections, initial TS optimization,
                  C. Bannwarth, S. Ehlert          DFT functionals, gCP, sTDA/sTD-DF
   Ed Valeev, F. Pavosevic, A. Kumar             : LibInt (2-el integral package), F12 methods
   Garnet Chan, S. Sharma, J. Yang, R. Olivares  : DMRG
   Ulf Ekstrom                                   : XCFun DFT Library
   Mihaly Kallay                                 : mrcc  (arbitrary order and MRCC methods)
   Jiri Pittner, Ondrej Demel                    : Mk-CCSD
   Frank Weinhold                                : gennbo (NPA and NBO analysis)
   Christopher J. Cramer and Donald G. Truhlar   : smd solvation model
   Lars Goerigk                                  : TD-DFT with DH, B97 family of functionals
   V. Asgeirsson, H. Jonsson                     : NEB implementation
   FAccTs GmbH                                   : IRC, NEB, NEB-TS, DLPNO-Multilevel, CI-OPT
                                                   MM, QMMM, 2- and 3-layer-ONIOM, Crystal-QMMM,
                                                   LR-CPCM, SF, NACMEs, symmetry and pop. for TD-DFT,
                                                   nearIR, NL-DFT gradient (VV10), updates on ESD,
                                                   ML-optimized integration grids
   S Lehtola, MJT Oliveira, MAL Marques          : LibXC Library
   Liviu Ungur et al                             : ANISO software


 Your calculation uses the libint2 library for the computation of 2-el integrals
 For citations please refer to: http://libint.valeyev.net

 Your ORCA version has been built with support for libXC version: 5.1.0
 For citations please refer to: https://tddft.org/programs/libxc/

 This ORCA versions uses:
   CBLAS   interface :  Fast vector & matrix operations
   LAPACKE interface :  Fast linear algebra routines
   SCALAPACK package :  Parallel linear algebra routines
   Shared memory     :  Shared parallel matrices
   BLAS/LAPACK       :  OpenBLAS 0.3.15  USE64BITINT DYNAMIC_ARCH NO_AFFINITY Haswell SINGLE_THREADED
        Core in use  :  Haswell
   Copyright (c) 2011-2014, The OpenBLAS Project


Reading of a custom orbital basis requested
Basis file: ../../../basis/aug-cc-pVQZ-CDF.bas
READING GTO-BASIS: HYDROGEN
READING GTO-BASIS: BORON
READING GTO-BASIS: CARBON
READING GTO-BASIS: NITROGEN
READING GTO-BASIS: OXYGEN
READING GTO-BASIS: FLUORINE
READING GTO-BASIS: NEON
Basis read successfully!



***************************************
The coordinates will be read from file: ../../../../chem_database/B.xyz
***************************************


================================================================================

----- Orbital basis set information -----
Basis read from file: ../../../basis/aug-cc-pVQZ-CDF.bas

================================================================================
                                        WARNINGS
                       Please study these warnings very carefully!
================================================================================


WARNING: your system is open-shell and RHF/RKS was chosen
  ===> : WILL SWITCH to UHF/UKS


INFO   : the flag for use of the SHARK integral package has been found!

================================================================================
                                       INPUT FILE
================================================================================
NAME = mol.inp
|  1> # ================================================================
|  2> # Orca input file
|  3> # ================================================================
|  4> ! HF cc-pVDZ VeryTightSCF UseSym
|  5> ! PAL4
|  6> 
|  7> %scf
|  8>   Guess = HCore
|  9> end
| 10> 
| 11> %basis
| 12> GTOName = "../../../basis/aug-cc-pVQZ-CDF.bas";
| 13> newecp B
| 14>  N_core 2
| 15>  lmax d
| 16>  d 8
| 17>   1            7.36012488           3.00000000    1
| 18>   2            6.02915850        2789.94706968    2
| 19>   3            6.15064050       -2795.50176250    2
| 20>   4            5.71476249          25.99605879    3
| 21>   5           12.16406320          -3.91568414    3
| 22>   6            7.77302431       -1296.48909094    4
| 23>   7            6.66965795       -1518.45403754    4
| 24>   8            7.33142208        2441.84985041    4
| 25>  s 8
| 26>   1            6.09072627       19489.93061835    2
| 27>   2            6.23007392      -19483.80961474    2
| 28>   3            8.07483380        1096.10597337    3
| 29>   4            5.26267677      -18293.63164349    3
| 30>   5            5.07954789       17197.52567012    3
| 31>   6           15.22800028        -164.29003506    4
| 32>   7            4.78683723       -2127.11495490    4
| 33>   8            7.75641417        -386.33655882    4
| 34>  p 8
| 35>   1           12.58743601        5935.34209387    2
| 36>   2            7.00011059       -5936.95827616    2
| 37>   3            5.50585387         319.38839934    3
| 38>   4            4.75319333      -23627.64850229    3
| 39>   5            4.74397002       23308.26010295    3
| 40>   6           10.01526904        3161.09544793    4
| 41>   7            8.00849846       14212.82036469    4
| 42>   8           11.35097775       15777.45845478    4
| 43> end
| 44> 
| 45> end
| 46> 
| 47> * xyzfile 0 2 ../../../../chem_database/B.xyz
| 48> 
| 49>                          ****END OF INPUT****
================================================================================

------------------------------------------------------------------------------
                            SYMMETRY HANDLING SETUP
------------------------------------------------------------------------------

------------------
SYMMETRY DETECTION
------------------
The point group will now be determined using a tolerance of 1.0000e-04.
The Z matrix contains a single non-dummy atom.
No further testing needed for point group Kh.
This point group has been found:    Kh
Largest non-degenerate subgroup:    D2h


Symmetry-perfected Cartesians (point groups Kh and D2h):

Atom          Symmetry-perfected Cartesians (x, y, z; au)
  0       0.000000000000    0.000000000000    0.000000000000


-----------------------------------------------
SYMMETRY-PERFECTED CARTESIAN COORDINATES (A.U.)
-----------------------------------------------
Warning (ORCA_SYM): Coordinates were not cleaned so far!

------------------
SYMMETRY REDUCTION
------------------
ORCA supports only abelian point groups.
It is now checked, if the determined point group is supported:
Point Group ( D2h   ) is          ... supported

(Re)building abelian point group:
Creating Character Table          ... done
Making direct product table       ... done
Constructing symmetry operations  ... done
Creating atom transfer table      ... done
Creating asymmetric unit          ... done

----------------------
ASYMMETRIC UNIT IN D2h
----------------------
  #  AT     MASS              COORDS (A.U.)             BAS
   0 B   10.8100   0.00000000   0.00000000   0.00000000   0

----------------------
SYMMETRY ADAPTED BASIS
----------------------
The coefficients for the symmetry adapted linear combinations (SALCS)
of basis functions will now be computed:
Number of basis functions         ...    79
Preparing memory                  ... done
Constructing Gamma(red)           ... done
Reducing Gamma(red)               ... done
Constructing SALCs                ... done
Checking SALC integrity           ... nothing suspicious
Normalizing SALCs                 ... done

Storing the symmetry object:
Symmetry file                     ... mol.sym.tmp
Writing symmetry information      ... done

                       ****************************
                       * Single Point Calculation *
                       ****************************

---------------------------------
CARTESIAN COORDINATES (ANGSTROEM)
---------------------------------
  B      0.000000    0.000000    0.000000

----------------------------
CARTESIAN COORDINATES (A.U.)
----------------------------
  NO LB      ZA    FRAG     MASS         X           Y           Z
   0 B     3.0000*   0    10.810    0.000000    0.000000    0.000000
* core charge reduced due to ECP

--------------------------------
INTERNAL COORDINATES (ANGSTROEM)
--------------------------------
 B      0   0   0     0.000000000000     0.00000000     0.00000000

---------------------------
INTERNAL COORDINATES (A.U.)
---------------------------
 B      0   0   0     0.000000000000     0.00000000     0.00000000

---------------------
BASIS SET INFORMATION
---------------------
There are 1 groups of distinct atoms

 Group   1 Type B   : 14s14p4d3f2g contracted to 5s5p4d3f2g pattern {101111/101111/1111/111/11}

Atom   0B    basis set group =>   1
-------------------------
ECP PARAMETER INFORMATION
-------------------------

 Group 1, Type B  ECP (replacing 2 core electrons, lmax=2)

Atom   0B    ECP group =>   1



           ************************************************************
           *        Program running with 4 parallel MPI-processes     *
           *              working on a common directory               *
           ************************************************************
------------------------------------------------------------------------------
                           ORCA GTO INTEGRAL CALCULATION
------------------------------------------------------------------------------
------------------------------------------------------------------------------
                   ___                                                        
                  /   \      - P O W E R E D   B Y -                         
                 /     \                                                     
                 |  |  |   _    _      __       _____    __    __             
                 |  |  |  | |  | |    /  \     |  _  \  |  |  /  |          
                  \  \/   | |  | |   /    \    | | | |  |  | /  /          
                 / \  \   | |__| |  /  /\  \   | |_| |  |  |/  /          
                |  |  |   |  __  | /  /__\  \  |    /   |      \           
                |  |  |   | |  | | |   __   |  |    \   |  |\   \          
                \     /   | |  | | |  |  |  |  | |\  \  |  | \   \       
                 \___/    |_|  |_| |__|  |__|  |_| \__\ |__|  \__/        
                                                                              
                      - O R C A' S   B I G   F R I E N D -                    
                                      &                                       
                       - I N T E G R A L  F E E D E R -                       
                                                                              
 v1 FN, 2020, v2 2021                                                         
------------------------------------------------------------------------------


Reading SHARK input file mol.SHARKINP.tmp ... ok
----------------------
SHARK INTEGRAL PACKAGE
----------------------

Number of atoms                             ...      1
Number of basis functions                   ...     79
Number of shells                            ...     19
Maximum angular momentum                    ...      4
Integral batch strategy                     ... SHARK/LIBINT Hybrid
RI-J (if used) integral strategy            ... SPLIT-RIJ (Revised 2003 algorithm where possible)
Printlevel                                  ...      1
Contraction scheme used                     ... SEGMENTED contraction
Coulomb Range Separation                    ... NOT USED
Exchange Range Separation                   ... NOT USED
Finite Nucleus Model                        ... NOT USED
Auxiliary Coulomb fitting basis             ... NOT available
Auxiliary J/K fitting basis                 ... NOT available
Auxiliary Correlation fitting basis         ... NOT available
Auxiliary 'external' fitting basis          ... NOT available
Integral threshold                          ...     1.000000e-12
Primitive cut-off                           ...     1.000000e-14
Primitive pair pre-selection threshold      ...     1.000000e-14

Calculating pre-screening integrals         ... done (  0.0 sec) Dimension = 19
Organizing shell pair data                  ... done (  0.0 sec)
Shell pair information
Total number of shell pairs                 ...       190
Shell pairs after pre-screening             ...       190
Total number of primitive shell pairs       ...       793
Primitive shell pairs kept                  ...       793
          la=0 lb=0:     15 shell pairs
          la=1 lb=0:     25 shell pairs
          la=1 lb=1:     15 shell pairs
          la=2 lb=0:     20 shell pairs
          la=2 lb=1:     20 shell pairs
          la=2 lb=2:     10 shell pairs
          la=3 lb=0:     15 shell pairs
          la=3 lb=1:     15 shell pairs
          la=3 lb=2:     12 shell pairs
          la=3 lb=3:      6 shell pairs
          la=4 lb=0:     10 shell pairs
          la=4 lb=1:     10 shell pairs
          la=4 lb=2:      8 shell pairs
          la=4 lb=3:      6 shell pairs
          la=4 lb=4:      3 shell pairs

Calculating one electron integrals          ... done (  0.0 sec)
Calculating ECP integrals                   ... done (  0.0 sec)
Calculating Nuclear repulsion               ... done (  0.0 sec) ENN=      0.000000000000 Eh

SHARK setup successfully completed in   0.2 seconds

Maximum memory used throughout the entire GTOINT-calculation: 33.5 MB


           ************************************************************
           *        Program running with 4 parallel MPI-processes     *
           *              working on a common directory               *
           ************************************************************
-------------------------------------------------------------------------------
                                 ORCA SCF
-------------------------------------------------------------------------------

------------
SCF SETTINGS
------------
Hamiltonian:
 Ab initio Hamiltonian  Method          .... Hartree-Fock(GTOs)


General Settings:
 Integral files         IntName         .... mol
 Hartree-Fock type      HFTyp           .... UHF
 Total Charge           Charge          ....    0
 Multiplicity           Mult            ....    2
 Number of Electrons    NEL             ....    3
 Basis Dimension        Dim             ....   79
 Nuclear Repulsion      ENuc            ....      0.0000000000 Eh

 Symmetry handling      UseSym         .... ON
 Point group                           .... D2h
 Used point group                      .... D2h
 Number of irreps                      .... 8
   Irrep   Ag has   19 symmetry adapted basis functions (ofs=   0)
   Irrep  B1g has    8 symmetry adapted basis functions (ofs=  19)
   Irrep  B2g has    8 symmetry adapted basis functions (ofs=  27)
   Irrep  B3g has    8 symmetry adapted basis functions (ofs=  35)
   Irrep   Au has    3 symmetry adapted basis functions (ofs=  43)
   Irrep  B1u has   11 symmetry adapted basis functions (ofs=  46)
   Irrep  B2u has   11 symmetry adapted basis functions (ofs=  57)
   Irrep  B3u has   11 symmetry adapted basis functions (ofs=  68)

Convergence Acceleration:
 DIIS                   CNVDIIS         .... on
   Start iteration      DIISMaxIt       ....    12
   Startup error        DIISStart       ....  0.200000
   # of expansion vecs  DIISMaxEq       ....     5
   Bias factor          DIISBfac        ....   1.050
   Max. coefficient     DIISMaxC        ....  10.000
 Trust-Rad. Augm. Hess. CNVTRAH         .... auto
   Auto Start mean grad. ratio tolernc. ....  1.125000
   Auto Start start iteration           ....    20
   Auto Start num. interpolation iter.  ....    10
   Max. Number of Micro iterations      ....    16
   Max. Number of Macro iterations      .... Maxiter - #DIIS iter
   Number of Davidson start vectors     ....     2
   Converg. threshold I  (grad. norm)   ....   2.000e-06
   Converg. threshold II (energy diff.) ....   1.000e-09
   Grad. Scal. Fac. for Micro threshold ....   0.100
   Minimum threshold for Micro iter.    ....   0.010
   NR start threshold (gradient norm)   ....   0.001
   Initial trust radius                 ....   0.400
   Minimum AH scaling param. (alpha)    ....   1.000
   Maximum AH scaling param. (alpha)    .... 1000.000
   Orbital update algorithm             .... Taylor
   White noise on init. David. guess    .... on
   Maximum white noise                  ....   0.010
   Quad. conv. algorithm                .... NR
 SOSCF                  CNVSOSCF        .... off
 Level Shifting         CNVShift        .... on
   Level shift para.    LevelShift      ....    0.2500
   Turn off err/grad.   ShiftErr        ....    0.0010
 Zerner damping         CNVZerner       .... off
 Static damping         CNVDamp         .... on
   Fraction old density DampFac         ....    0.7000
   Max. Damping (<1)    DampMax         ....    0.9800
   Min. Damping (>=0)   DampMin         ....    0.0000
   Turn off err/grad.   DampErr         ....    0.1000
 Fernandez-Rico         CNVRico         .... off

SCF Procedure:
 Maximum # iterations   MaxIter         ....   125
 SCF integral mode      SCFMode         .... Direct
   Integral package                     .... SHARK and LIBINT hybrid scheme
 Reset frequency        DirectResetFreq ....    20
 Integral Threshold     Thresh          ....  1.000e-12 Eh
 Primitive CutOff       TCut            ....  1.000e-14 Eh

Convergence Tolerance:
 Convergence Check Mode ConvCheckMode   .... Total+1el-Energy
 Convergence forced     ConvForced      .... 0
 Energy Change          TolE            ....  1.000e-09 Eh
 1-El. energy change                    ....  1.000e-06 Eh
 DIIS Error             TolErr          ....  1.000e-08


Diagonalization of the overlap matrix:
Smallest eigenvalue                        ... 3.203e-03
Time for diagonalization                   ...    0.005 sec
Threshold for overlap eigenvalues          ... 1.000e-08
Number of eigenvalues below threshold      ... 0
Time for construction of square roots      ...    0.001 sec
Producing symmetrization matrix            ... done (   0.000 sec)
Total time needed                          ...    0.007 sec

--------------------
INITIAL GUESS: HCORE
--------------------
Diagonalizing the Hamiltonian                      ... done
Diagonalizing the Hamiltonian                      ... done
Back transforming the eigenvectors                 ... done
                      -----------------
                      INTIAL GUESS DONE 
                      -----------------
The symmetry of the initial guess is 2-B2u
Irrep occupations for operator 0
    Ag -    1
   B1g -    0
   B2g -    0
   B3g -    0
    Au -    0
   B1u -    0
   B2u -    1
   B3u -    0
Irrep occupations for operator 1
    Ag -    1
   B1g -    0
   B2g -    0
   B3g -    0
    Au -    0
   B1u -    0
   B2u -    0
   B3u -    0
--------------
SCF ITERATIONS
--------------
ITER       Energy         Delta-E        Max-DP      RMS-DP      [F,P]     Damp
               ***  Starting incremental Fock matrix formation  ***
  0     -2.3924058165   0.000000000000 0.28169780  0.00439280  0.1697174 0.7000
  1     -2.4286451537  -0.036239337156 0.24232807  0.00374164  0.1332986 0.7000
                               ***Turning on DIIS***
  2     -2.4582444028  -0.029599249116 0.62307656  0.00944670  0.0994445 0.0000
  3     -2.5540296354  -0.095785232623 0.08892976  0.00113543  0.0250843 0.0000
  4     -2.5459880981   0.008041537310 0.03660968  0.00046281  0.0112322 0.0000
  5     -2.5433230463   0.002665051823 0.01895659  0.00023877  0.0052013 0.0000
  6     -2.5421774976   0.001145548742 0.00969786  0.00012418  0.0024097 0.0000
  7     -2.5417071476   0.000470349934 0.00497160  0.00006512  0.0010973 0.0000
  8     -2.5415174654   0.000189682181 0.00280796  0.00003570  0.0005076 0.0000
  9     -2.5413515334   0.000165932077 0.00026824  0.00000439  0.0000488 0.0000
 10     -2.5413549569  -0.000003423493 0.00007715  0.00000137  0.0000129 0.0000
 11     -2.5413576245  -0.000002667662 0.00001954  0.00000031  0.0000034 0.0000
 12     -2.5413575007   0.000000123862 0.00000389  0.00000006  0.0000007 0.0000
 13     -2.5413573476   0.000000153026 0.00000049  0.00000001  0.0000001 0.0000
                            ***DIIS convergence achieved***

               *****************************************************
               *                     SUCCESS                       *
               *           SCF CONVERGED AFTER  14 CYCLES          *
               *****************************************************


----------------
TOTAL SCF ENERGY
----------------

Total Energy       :           -2.54135733 Eh             -69.15385 eV

Components:
Nuclear Repulsion  :            0.00000000 Eh               0.00000 eV
Electronic Energy  :           -2.54135733 Eh             -69.15385 eV
One Electron Energy:           -3.77206055 Eh            -102.64299 eV
Two Electron Energy:            1.23070322 Eh              33.48914 eV

Virial components:
Potential Energy   :           -3.83537350 Eh            -104.36582 eV
Kinetic Energy     :            1.29401617 Eh              35.21197 eV
Virial Ratio       :            2.96393012


---------------
SCF CONVERGENCE
---------------

  Last Energy change         ...    1.5641e-08  Tolerance :   1.0000e-09
  Last MAX-Density change    ...    8.1540e-08  Tolerance :   1.0000e-08
  Last RMS-Density change    ...    1.2408e-09  Tolerance :   1.0000e-09
  Last DIIS Error            ...    1.6186e-08  Tolerance :   1.0000e-08

             **** THE GBW FILE WAS UPDATED (mol.gbw) ****
             **** DENSITY mol.scfp WAS UPDATED ****
             **** ENERGY FILE WAS UPDATED (mol.en.tmp) ****
----------------------
UHF SPIN CONTAMINATION
----------------------

Expectation value of <S**2>     :     0.762003
Ideal value S*(S+1) for S=0.5   :     0.750000
Deviation                       :     0.012003

             **** THE GBW FILE WAS UPDATED (mol.gbw) ****
             **** DENSITY mol.scfp WAS UPDATED ****
----------------
ORBITAL ENERGIES
----------------
                 SPIN UP ORBITALS
  NO   OCC          E(Eh)            E(eV)    Irrep 
   0   1.0000      -0.547457       -14.8971    1-Ag
   1   1.0000      -0.319236        -8.6869    1-B2u
   2   0.0000       0.024322         0.6618    1-B1u
   3   0.0000       0.024322         0.6618    1-B3u
   4   0.0000       0.054510         1.4833    2-B2u
   5   0.0000       0.065466         1.7814    2-Ag
   6   0.0000       0.081778         2.2253    2-B1u
   7   0.0000       0.081778         2.2253    2-B3u
   8   0.0000       0.150095         4.0843    3-Ag
   9   0.0000       0.150095         4.0843    1-B2g
  10   0.0000       0.151852         4.1321    1-B1g
  11   0.0000       0.151852         4.1321    1-B3g
  12   0.0000       0.152771         4.1571    4-Ag
  13   0.0000       0.286471         7.7953    3-B2u
  14   0.0000       0.325703         8.8628    3-B1u
  15   0.0000       0.325703         8.8628    3-B3u
  16   0.0000       0.383380        10.4323    5-Ag
  17   0.0000       0.461389        12.5550    4-B1u
  18   0.0000       0.461389        12.5550    4-B3u
  19   0.0000       0.466617        12.6973    1-Au
  20   0.0000       0.466617        12.6973    4-B2u
  21   0.0000       0.469868        12.7858    5-B1u
  22   0.0000       0.469868        12.7858    5-B3u
  23   0.0000       0.470913        12.8142    5-B2u
  24   0.0000       0.508267        13.8307    6-Ag
  25   0.0000       0.509705        13.8698    2-B3g
  26   0.0000       0.509705        13.8698    2-B1g
  27   0.0000       0.518157        14.0998    2-B2g
  28   0.0000       0.518157        14.0998    7-Ag
  29   0.0000       1.029448        28.0127    6-B2u
  30   0.0000       1.054686        28.6995    6-B3u
  31   0.0000       1.054686        28.6995    6-B1u
  32   0.0000       1.320078        35.9212    8-Ag
  33   0.0000       1.320078        35.9212    3-B2g
  34   0.0000       1.329154        36.1681    3-B3g
  35   0.0000       1.329154        36.1681    3-B1g
  36   0.0000       1.335673        36.3455    4-B2g
  37   0.0000       1.335673        36.3455    9-Ag
  38   0.0000       1.339579        36.4518    4-B3g
  39   0.0000       1.339579        36.4518    4-B1g
  40   0.0000       1.340878        36.4872   10-Ag
  41   0.0000       1.442613        39.2555    7-B1u
  42   0.0000       1.442613        39.2555    7-B3u
  43   0.0000       1.450969        39.4829    2-Au
  44   0.0000       1.450969        39.4829    7-B2u
  45   0.0000       1.454476        39.5783   11-Ag
  46   0.0000       1.455967        39.6189    8-B1u
  47   0.0000       1.455967        39.6189    8-B3u
  48   0.0000       1.457171        39.6516    5-B3g
  49   0.0000       1.457171        39.6516    5-B1g
  50   0.0000       1.457619        39.6638    8-B2u
  51   0.0000       1.463902        39.8348   12-Ag
  52   0.0000       1.463902        39.8348    5-B2g
  53   0.0000       1.551959        42.2310   13-Ag
  54   0.0000       3.565570        97.0241    9-B1u
  55   0.0000       3.565570        97.0241    9-B3u
  56   0.0000       3.567475        97.0759    9-B2u
  57   0.0000       3.842702       104.5652    6-B2g
  58   0.0000       3.842702       104.5652   14-Ag
  59   0.0000       3.857772       104.9753    6-B3g
  60   0.0000       3.857772       104.9753    6-B1g
  61   0.0000       3.868607       105.2701    7-B2g
  62   0.0000       3.868607       105.2701   15-Ag
  63   0.0000       3.875131       105.4477    7-B1g
  64   0.0000       3.875131       105.4477    7-B3g
  65   0.0000       3.877309       105.5070   16-Ag
  66   0.0000       4.023854       109.4946   10-B3u
  67   0.0000       4.023854       109.4946   10-B1u
  68   0.0000       4.037802       109.8742    3-Au
  69   0.0000       4.037802       109.8742   10-B2u
  70   0.0000       4.046258       110.1043   11-B1u
  71   0.0000       4.046258       110.1043   11-B3u
  72   0.0000       4.049093       110.1814   11-B2u
  73   0.0000       4.136370       112.5564   17-Ag
  74   0.0000       4.136370       112.5564    8-B2g
  75   0.0000       4.144633       112.7812    8-B1g
  76   0.0000       4.144633       112.7812    8-B3g
  77   0.0000       4.147469       112.8584   18-Ag
  78   0.0000       6.100087       165.9918   19-Ag

                 SPIN DOWN ORBITALS
  NO   OCC          E(Eh)            E(eV)    Irrep 
   0   1.0000      -0.443961       -12.0808    1-Ag
   1   0.0000       0.028299         0.7701    1-B3u
   2   0.0000       0.028299         0.7701    1-B1u
   3   0.0000       0.041739         1.1358    1-B2u
   4   0.0000       0.069994         1.9046    2-Ag
   5   0.0000       0.088924         2.4197    2-B1u
   6   0.0000       0.088924         2.4197    2-B3u
   7   0.0000       0.122731         3.3397    2-B2u
   8   0.0000       0.150141         4.0856    1-B2g
   9   0.0000       0.150141         4.0856    3-Ag
  10   0.0000       0.156428         4.2566    1-B3g
  11   0.0000       0.156428         4.2566    1-B1g
  12   0.0000       0.158833         4.3221    4-Ag
  13   0.0000       0.334092         9.0911    3-B3u
  14   0.0000       0.334092         9.0911    3-B1u
  15   0.0000       0.367594        10.0027    3-B2u
  16   0.0000       0.401555        10.9269    5-Ag
  17   0.0000       0.461258        12.5515    4-B1u
  18   0.0000       0.461258        12.5515    4-B3u
  19   0.0000       0.470610        12.8060    4-B2u
  20   0.0000       0.470610        12.8060    1-Au
  21   0.0000       0.476523        12.9669    5-B1u
  22   0.0000       0.476523        12.9669    5-B3u
  23   0.0000       0.478570        13.0226    5-B2u
  24   0.0000       0.519180        14.1276    2-B2g
  25   0.0000       0.519180        14.1276    6-Ag
  26   0.0000       0.542019        14.7491    2-B3g
  27   0.0000       0.542019        14.7491    2-B1g
  28   0.0000       0.550872        14.9900    7-Ag
  29   0.0000       1.064195        28.9582    6-B3u
  30   0.0000       1.064195        28.9582    6-B1u
  31   0.0000       1.107627        30.1401    6-B2u
  32   0.0000       1.319713        35.9112    8-Ag
  33   0.0000       1.319713        35.9112    3-B2g
  34   0.0000       1.334016        36.3004    3-B3g
  35   0.0000       1.334016        36.3004    3-B1g
  36   0.0000       1.344492        36.5855    4-B2g
  37   0.0000       1.344492        36.5855    9-Ag
  38   0.0000       1.350897        36.7598    4-B3g
  39   0.0000       1.350897        36.7598    4-B1g
  40   0.0000       1.353053        36.8185   10-Ag
  41   0.0000       1.443153        39.2702    7-B1u
  42   0.0000       1.443153        39.2702    7-B3u
  43   0.0000       1.467139        39.9229    7-B2u
  44   0.0000       1.467139        39.9229    2-Au
  45   0.0000       1.468714        39.9657   11-Ag
  46   0.0000       1.468714        39.9657    5-B2g
  47   0.0000       1.482215        40.3331    8-B1u
  48   0.0000       1.482215        40.3331    8-B3u
  49   0.0000       1.487406        40.4744    8-B2u
  50   0.0000       1.506331        40.9893    5-B3g
  51   0.0000       1.506331        40.9893    5-B1g
  52   0.0000       1.520037        41.3623   12-Ag
  53   0.0000       1.579418        42.9781   13-Ag
  54   0.0000       3.573553        97.2413    9-B1u
  55   0.0000       3.573553        97.2413    9-B3u
  56   0.0000       3.618623        98.4677    9-B2u
  57   0.0000       3.843383       104.5838    6-B2g
  58   0.0000       3.843383       104.5838   14-Ag
  59   0.0000       3.868719       105.2732    6-B3g
  60   0.0000       3.868719       105.2732    6-B1g
  61   0.0000       3.887156       105.7749    7-B2g
  62   0.0000       3.887156       105.7749   15-Ag
  63   0.0000       3.898364       106.0799    7-B3g
  64   0.0000       3.898364       106.0799    7-B1g
  65   0.0000       3.902125       106.1822   16-Ag
  66   0.0000       4.026660       109.5710   10-B3u
  67   0.0000       4.026660       109.5710   10-B1u
  68   0.0000       4.059381       110.4614    3-Au
  69   0.0000       4.059381       110.4614   10-B2u
  70   0.0000       4.079679       111.0137   11-B1u
  71   0.0000       4.079679       111.0137   11-B3u
  72   0.0000       4.086608       111.2023   11-B2u
  73   0.0000       4.142045       112.7108   17-Ag
  74   0.0000       4.142045       112.7108    8-B2g
  75   0.0000       4.181114       113.7739    8-B1g
  76   0.0000       4.181114       113.7739    8-B3g
  77   0.0000       4.194808       114.1465   18-Ag
  78   0.0000       6.116678       166.4433   19-Ag

                    ********************************
                    * MULLIKEN POPULATION ANALYSIS *
                    ********************************

--------------------------------------------
MULLIKEN ATOMIC CHARGES AND SPIN POPULATIONS
--------------------------------------------
   0 B :    0.000000    1.000000
Sum of atomic charges         :    0.0000000
Sum of atomic spin populations:    1.0000000

-----------------------------------------------------
MULLIKEN REDUCED ORBITAL CHARGES AND SPIN POPULATIONS
-----------------------------------------------------
CHARGE
  0 B s       :     1.994791  s :     1.994791
      pz      :     0.000000  p :     0.999984
      px      :     0.000000
      py      :     0.999984
      dz2     :     0.001302  d :     0.005209
      dxz     :     0.000000
      dyz     :     0.000000
      dx2y2   :     0.003907
      dxy     :     0.000000
      f0      :     0.000000  f :     0.000016
      f+1     :     0.000000
      f-1     :     0.000006
      f+2     :     0.000000
      f-2     :     0.000000
      f+3     :     0.000000
      f-3     :     0.000010
      g0      :     0.000000  g :     0.000000
      g+1     :     0.000000
      g-1     :     0.000000
      g+2     :     0.000000
      g-2     :     0.000000
      g+3     :     0.000000
      g-3     :     0.000000
      g+4     :     0.000000
      g-4     :     0.000000

SPIN
  0 B s       :    -0.001120  s :    -0.001120
      pz      :     0.000000  p :     0.999984
      px      :     0.000000
      py      :     0.999984
      dz2     :     0.000280  d :     0.001120
      dxz     :     0.000000
      dyz     :     0.000000
      dx2y2   :     0.000840
      dxy     :    -0.000000
      f0      :     0.000000  f :     0.000016
      f+1     :     0.000000
      f-1     :     0.000006
      f+2     :     0.000000
      f-2     :     0.000000
      f+3     :     0.000000
      f-3     :     0.000010
      g0      :    -0.000000  g :    -0.000000
      g+1     :     0.000000
      g-1     :     0.000000
      g+2     :    -0.000000
      g-2     :     0.000000
      g+3     :     0.000000
      g-3     :     0.000000
      g+4     :    -0.000000
      g-4     :    -0.000000


                     *******************************
                     * LOEWDIN POPULATION ANALYSIS *
                     *******************************

-------------------------------------------
LOEWDIN ATOMIC CHARGES AND SPIN POPULATIONS
-------------------------------------------
   0 B :    0.000000    1.000000

----------------------------------------------------
LOEWDIN REDUCED ORBITAL CHARGES AND SPIN POPULATIONS
----------------------------------------------------
CHARGE
  0 B s       :     1.994791  s :     1.994791
      pz      :     0.000000  p :     0.999984
      px      :     0.000000
      py      :     0.999984
      dz2     :     0.001302  d :     0.005209
      dxz     :     0.000000
      dyz     :     0.000000
      dx2y2   :     0.003907
      dxy     :     0.000000
      f0      :     0.000000  f :     0.000016
      f+1     :     0.000000
      f-1     :     0.000006
      f+2     :     0.000000
      f-2     :     0.000000
      f+3     :     0.000000
      f-3     :     0.000010
      g0      :     0.000000  g :     0.000000
      g+1     :     0.000000
      g-1     :     0.000000
      g+2     :     0.000000
      g-2     :     0.000000
      g+3     :     0.000000
      g-3     :     0.000000
      g+4     :     0.000000
      g-4     :     0.000000

SPIN
  0 B s       :    -0.001120  s :    -0.001120
      pz      :     0.000000  p :     0.999984
      px      :     0.000000
      py      :     0.999984
      dz2     :     0.000280  d :     0.001120
      dxz     :     0.000000
      dyz     :     0.000000
      dx2y2   :     0.000840
      dxy     :    -0.000000
      f0      :     0.000000  f :     0.000016
      f+1     :     0.000000
      f-1     :     0.000006
      f+2     :     0.000000
      f-2     :     0.000000
      f+3     :     0.000000
      f-3     :     0.000010
      g0      :    -0.000000  g :    -0.000000
      g+1     :     0.000000
      g-1     :     0.000000
      g+2     :    -0.000000
      g-2     :     0.000000
      g+3     :     0.000000
      g-3     :     0.000000
      g+4     :    -0.000000
      g-4     :    -0.000000


                      *****************************
                      * MAYER POPULATION ANALYSIS *
                      *****************************

  NA   - Mulliken gross atomic population
  ZA   - Total nuclear charge
  QA   - Mulliken gross atomic charge
  VA   - Mayer's total valence
  BVA  - Mayer's bonded valence
  FA   - Mayer's free valence

  ATOM       NA         ZA         QA         VA         BVA        FA
  0 B      3.0000     3.0000     0.0000     1.0240     0.0000     1.0240

  Mayer bond orders larger than 0.100000


-------
TIMINGS
-------

Total SCF time: 0 days 0 hours 0 min 2 sec 

Total time                  ....       2.013 sec
Sum of individual times     ....       1.834 sec  ( 91.1%)

Fock matrix formation       ....       1.759 sec  ( 87.4%)
Diagonalization             ....       0.031 sec  (  1.5%)
Density matrix formation    ....       0.001 sec  (  0.1%)
Population analysis         ....       0.008 sec  (  0.4%)
Initial guess               ....       0.003 sec  (  0.1%)
Orbital Transformation      ....       0.000 sec  (  0.0%)
Orbital Orthonormalization  ....       0.000 sec  (  0.0%)
DIIS solution               ....       0.032 sec  (  1.6%)

Maximum memory used throughout the entire SCF-calculation: 228.3 MB

-------------------------   --------------------
FINAL SINGLE POINT ENERGY        -2.541357331989
-------------------------   --------------------


                            ***************************************
                            *     ORCA property calculations      *
                            ***************************************

                                    ---------------------
                                    Active property flags
                                    ---------------------
   (+) Dipole Moment


------------------------------------------------------------------------------
                       ORCA ELECTRIC PROPERTIES CALCULATION
------------------------------------------------------------------------------

Dipole Moment Calculation                       ... on
Quadrupole Moment Calculation                   ... off
Polarizability Calculation                      ... off
GBWName                                         ... mol.gbw
Electron density                                ... mol.scfp
The origin for moment calculation is the CENTER OF MASS  = ( 0.000000,  0.000000  0.000000)

-------------
DIPOLE MOMENT
-------------
                                X             Y             Z
Electronic contribution:      0.00000      -0.00000      -0.00000
Nuclear contribution   :      0.00000       0.00000       0.00000
                        -----------------------------------------
Total Dipole Moment    :      0.00000      -0.00000      -0.00000
                        -----------------------------------------
Magnitude (a.u.)       :      0.00000
Magnitude (Debye)      :      0.00000



--------------------
Rotational spectrum 
--------------------
 
Rotational constants in cm-1:     0.000000     0.000000     0.000000 
Rotational constants in MHz :     0.000000     0.000000     0.000000 

 Dipole components along the rotational axes: 
x,y,z [a.u.] :     0.000000    -0.000000    -0.000000 
x,y,z [Debye]:     0.000000    -0.000000    -0.000000 

 

Timings for individual modules:

Sum of individual times         ...        3.254 sec (=   0.054 min)
GTO integral calculation        ...        0.775 sec (=   0.013 min)  23.8 %
SCF iterations                  ...        2.479 sec (=   0.041 min)  76.2 %
                             ****ORCA TERMINATED NORMALLY****
TOTAL RUN TIME: 0 days 0 hours 0 minutes 4 seconds 37 msec
