[Molden Format]
[Atoms] (Angs)
  C      1    6      0.09076617     -0.12573586      0.00000000
  C      2    6     -1.39118075      0.11558939      0.00000000
  O      3    8      0.63502979     -1.20006749      0.00000000
  O      4    8      0.78134765      1.03885833     -0.00000000
  H      5    1      1.71507330      0.79251794     -0.00000000
  H      6    1     -1.91251002     -0.83603319      0.00000000
  H      7    1     -1.66554767      0.69703369      0.87958523
  H      8    1     -1.66554767      0.69703369     -0.87958523
[GTO]
1    0
S    8    1.000000
   3.39800000E+04    9.20400000E-05 
   5.08900000E+03    6.99910000E-04 
   1.15700000E+03    3.69300000E-03 
   3.26600000E+02    1.51818100E-02 
   1.06100000E+02    5.21403500E-02 
   3.81100000E+01    1.38274510E-01 
   1.47500000E+01    2.68772030E-01 
   6.03500000E+00    2.28418390E-01 
S    8    1.000000
   3.39800000E+04    3.40000000E-07 
   5.08900000E+03   -1.35000000E-06 
   3.26600000E+02   -5.90100000E-05 
   1.06100000E+02   -2.61180000E-04 
   3.81100000E+01   -2.90391000E-03 
   1.47500000E+01   -1.22067500E-02 
   6.03500000E+00   -5.66064900E-02 
   2.53000000E+00   -7.18816800E-02 
S    1    1.000000
   7.35500000E-01    1.00000000E+00 
S    1    1.000000
   2.90500000E-01    1.00000000E+00 
S    1    1.000000
   1.11100000E-01    1.00000000E+00 
P    3    1.000000
   3.45100000E+01    5.37800000E-03 
   7.91500000E+00    3.61320000E-02 
   2.36800000E+00    1.42493000E-01 
P    1    1.000000
   8.13200000E-01    1.00000000E+00 
P    1    1.000000
   2.89000000E-01    1.00000000E+00 
P    1    1.000000
   1.00700000E-01    1.00000000E+00 
D    1    1.000000
   1.84800000E+00    1.00000000E+00 
D    1    1.000000
   6.49000000E-01    1.00000000E+00 
D    1    1.000000
   2.28000000E-01    1.00000000E+00 
F    1    1.000000
   1.41900000E+00    1.00000000E+00 
F    1    1.000000
   4.85000000E-01    1.00000000E+00 
G    1    1.000000
   1.01100000E+00    1.00000000E+00 

2    0
S    8    1.000000
   3.39800000E+04    9.20400000E-05 
   5.08900000E+03    6.99910000E-04 
   1.15700000E+03    3.69300000E-03 
   3.26600000E+02    1.51818100E-02 
   1.06100000E+02    5.21403500E-02 
   3.81100000E+01    1.38274510E-01 
   1.47500000E+01    2.68772030E-01 
   6.03500000E+00    2.28418390E-01 
S    8    1.000000
   3.39800000E+04    3.40000000E-07 
   5.08900000E+03   -1.35000000E-06 
   3.26600000E+02   -5.90100000E-05 
   1.06100000E+02   -2.61180000E-04 
   3.81100000E+01   -2.90391000E-03 
   1.47500000E+01   -1.22067500E-02 
   6.03500000E+00   -5.66064900E-02 
   2.53000000E+00   -7.18816800E-02 
S    1    1.000000
   7.35500000E-01    1.00000000E+00 
S    1    1.000000
   2.90500000E-01    1.00000000E+00 
S    1    1.000000
   1.11100000E-01    1.00000000E+00 
P    3    1.000000
   3.45100000E+01    5.37800000E-03 
   7.91500000E+00    3.61320000E-02 
   2.36800000E+00    1.42493000E-01 
P    1    1.000000
   8.13200000E-01    1.00000000E+00 
P    1    1.000000
   2.89000000E-01    1.00000000E+00 
P    1    1.000000
   1.00700000E-01    1.00000000E+00 
D    1    1.000000
   1.84800000E+00    1.00000000E+00 
D    1    1.000000
   6.49000000E-01    1.00000000E+00 
D    1    1.000000
   2.28000000E-01    1.00000000E+00 
F    1    1.000000
   1.41900000E+00    1.00000000E+00 
F    1    1.000000
   4.85000000E-01    1.00000000E+00 
G    1    1.000000
   1.01100000E+00    1.00000000E+00 

3    0
S    8    1.000000
   6.14200000E+04    9.15600000E-05 
   9.19900000E+03    6.97330000E-04 
   2.09100000E+03    3.67901000E-03 
   5.90900000E+02    1.50670600E-02 
   1.92300000E+02    5.16674200E-02 
   6.93200000E+01    1.35843520E-01 
   2.69700000E+01    2.60704420E-01 
   1.11000000E+01    1.96456920E-01 
S    8    1.000000
   6.14200000E+04    6.10000000E-07 
   9.19900000E+03   -1.80000000E-06 
   5.90900000E+02   -1.08610000E-04 
   1.92300000E+02   -4.94110000E-04 
   6.93200000E+01   -5.43605000E-03 
   2.69700000E+01   -2.33243000E-02 
   1.11000000E+01   -1.03719380E-01 
   4.68200000E+00   -1.10942760E-01 
S    1    1.000000
   1.42800000E+00    1.00000000E+00 
S    1    1.000000
   5.54700000E-01    1.00000000E+00 
S    1    1.000000
   2.06700000E-01    1.00000000E+00 
P    3    1.000000
   6.34200000E+01    6.04400000E-03 
   1.46600000E+01    4.17990000E-02 
   4.45900000E+00    1.61143000E-01 
P    1    1.000000
   1.53100000E+00    1.00000000E+00 
P    1    1.000000
   5.30200000E-01    1.00000000E+00 
P    1    1.000000
   1.75000000E-01    1.00000000E+00 
D    1    1.000000
   3.77500000E+00    1.00000000E+00 
D    1    1.000000
   1.30000000E+00    1.00000000E+00 
D    1    1.000000
   4.44000000E-01    1.00000000E+00 
F    1    1.000000
   2.66600000E+00    1.00000000E+00 
F    1    1.000000
   8.59000000E-01    1.00000000E+00 
G    1    1.000000
   1.84600000E+00    1.00000000E+00 

4    0
S    8    1.000000
   6.14200000E+04    9.15600000E-05 
   9.19900000E+03    6.97330000E-04 
   2.09100000E+03    3.67901000E-03 
   5.90900000E+02    1.50670600E-02 
   1.92300000E+02    5.16674200E-02 
   6.93200000E+01    1.35843520E-01 
   2.69700000E+01    2.60704420E-01 
   1.11000000E+01    1.96456920E-01 
S    8    1.000000
   6.14200000E+04    6.10000000E-07 
   9.19900000E+03   -1.80000000E-06 
   5.90900000E+02   -1.08610000E-04 
   1.92300000E+02   -4.94110000E-04 
   6.93200000E+01   -5.43605000E-03 
   2.69700000E+01   -2.33243000E-02 
   1.11000000E+01   -1.03719380E-01 
   4.68200000E+00   -1.10942760E-01 
S    1    1.000000
   1.42800000E+00    1.00000000E+00 
S    1    1.000000
   5.54700000E-01    1.00000000E+00 
S    1    1.000000
   2.06700000E-01    1.00000000E+00 
P    3    1.000000
   6.34200000E+01    6.04400000E-03 
   1.46600000E+01    4.17990000E-02 
   4.45900000E+00    1.61143000E-01 
P    1    1.000000
   1.53100000E+00    1.00000000E+00 
P    1    1.000000
   5.30200000E-01    1.00000000E+00 
P    1    1.000000
   1.75000000E-01    1.00000000E+00 
D    1    1.000000
   3.77500000E+00    1.00000000E+00 
D    1    1.000000
   1.30000000E+00    1.00000000E+00 
D    1    1.000000
   4.44000000E-01    1.00000000E+00 
F    1    1.000000
   2.66600000E+00    1.00000000E+00 
F    1    1.000000
   8.59000000E-01    1.00000000E+00 
G    1    1.000000
   1.84600000E+00    1.00000000E+00 

5    0
S    3    1.000000
   8.26400000E+01    2.00600000E-03 
   1.24100000E+01    1.53430000E-02 
   2.82400000E+00    7.55790000E-02 
S    1    1.000000
   7.97700000E-01    1.00000000E+00 
S    1    1.000000
   2.58100000E-01    1.00000000E+00 
S    1    1.000000
   8.98900000E-02    1.00000000E+00 
P    1    1.000000
   2.29200000E+00    1.00000000E+00 
P    1    1.000000
   8.38000000E-01    1.00000000E+00 
P    1    1.000000
   2.92000000E-01    1.00000000E+00 
D    1    1.000000
   2.06200000E+00    1.00000000E+00 
D    1    1.000000
   6.62000000E-01    1.00000000E+00 
F    1    1.000000
   1.39700000E+00    1.00000000E+00 

6    0
S    3    1.000000
   8.26400000E+01    2.00600000E-03 
   1.24100000E+01    1.53430000E-02 
   2.82400000E+00    7.55790000E-02 
S    1    1.000000
   7.97700000E-01    1.00000000E+00 
S    1    1.000000
   2.58100000E-01    1.00000000E+00 
S    1    1.000000
   8.98900000E-02    1.00000000E+00 
P    1    1.000000
   2.29200000E+00    1.00000000E+00 
P    1    1.000000
   8.38000000E-01    1.00000000E+00 
P    1    1.000000
   2.92000000E-01    1.00000000E+00 
D    1    1.000000
   2.06200000E+00    1.00000000E+00 
D    1    1.000000
   6.62000000E-01    1.00000000E+00 
F    1    1.000000
   1.39700000E+00    1.00000000E+00 

7    0
S    3    1.000000
   8.26400000E+01    2.00600000E-03 
   1.24100000E+01    1.53430000E-02 
   2.82400000E+00    7.55790000E-02 
S    1    1.000000
   7.97700000E-01    1.00000000E+00 
S    1    1.000000
   2.58100000E-01    1.00000000E+00 
S    1    1.000000
   8.98900000E-02    1.00000000E+00 
P    1    1.000000
   2.29200000E+00    1.00000000E+00 
P    1    1.000000
   8.38000000E-01    1.00000000E+00 
P    1    1.000000
   2.92000000E-01    1.00000000E+00 
D    1    1.000000
   2.06200000E+00    1.00000000E+00 
D    1    1.000000
   6.62000000E-01    1.00000000E+00 
F    1    1.000000
   1.39700000E+00    1.00000000E+00 

8    0
S    3    1.000000
   8.26400000E+01    2.00600000E-03 
   1.24100000E+01    1.53430000E-02 
   2.82400000E+00    7.55790000E-02 
S    1    1.000000
   7.97700000E-01    1.00000000E+00 
S    1    1.000000
   2.58100000E-01    1.00000000E+00 
S    1    1.000000
   8.98900000E-02    1.00000000E+00 
P    1    1.000000
   2.29200000E+00    1.00000000E+00 
P    1    1.000000
   8.38000000E-01    1.00000000E+00 
P    1    1.000000
   2.92000000E-01    1.00000000E+00 
D    1    1.000000
   2.06200000E+00    1.00000000E+00 
D    1    1.000000
   6.62000000E-01    1.00000000E+00 
F    1    1.000000
   1.39700000E+00    1.00000000E+00 

[MO]
Sym=X
Ene= -19.177845
Spin=Alpha
Occup=1
     1    2.933945292618e-05
     2    5.689280888405e-05
     3   -4.037429111606e-03
     4    1.435719433903e-02
     5    2.911371393680e-03
     6   -1.913115702851e-04
     7   -3.439571979773e-04
     8   -2.573067718077e-16
     9    4.055656442442e-04
    10    6.072174463314e-04
    11    2.024012756035e-15
    12    4.178282129287e-03
    13    9.216633866513e-03
    14   -1.466094917689e-14
    15    2.415250748924e-04
    16   -8.259451964127e-04
    17   -5.021850424152e-15
    18    3.084000959991e-04
    19   -1.023605964835e-16
    20   -2.963997510734e-16
    21    2.076813053812e-04
    22   -2.776327673405e-04
    23   -2.373174026367e-03
    24   -1.551247669272e-15
    25    3.418584317537e-15
    26   -2.084225931366e-03
    27    2.611988208494e-03
    28   -1.723373479038e-03
    29    1.583613062884e-15
    30    1.699161062384e-15
    31   -3.673834161197e-03
    32    9.813791266813e-04
    33    9.871500638314e-18
    34   -1.003011175113e-04
    35   -1.370616129034e-04
    36    6.006316981727e-16
    37    3.315083601472e-16
    38   -3.554205535237e-04
    39   -1.050674554819e-05
    40    3.024967471673e-15
    41   -5.928915097326e-04
    42   -1.336110040709e-03
    43    1.086921148246e-16
    44    5.511358361197e-15
    45   -1.801840084436e-03
    46    3.507700394762e-04
    47    1.158249262081e-04
    48    3.098015593044e-16
    49   -9.298708636716e-16
    50    1.254789459678e-04
    51   -1.897545042098e-04
    52    8.364662112373e-18
    53   -3.896712605164e-16
    54    5.067031173012e-05
    55   -1.765675941906e-04
    56   -5.826957517925e-06
    57   -1.630578870784e-05
    58    2.021549117245e-04
    59   -4.234581351100e-04
    60   -1.304750314691e-03
    61   -1.625897612585e-06
    62   -4.279030171809e-05
    63    1.585477594160e-17
    64   -4.394946611515e-05
    65    3.172802092439e-04
    66    1.862998145509e-15
    67   -2.380483533665e-04
    68   -1.961962270840e-03
    69    3.880453723038e-14
    70   -6.400375038375e-04
    71   -3.897261658358e-04
    72    1.374529989052e-14
    73    1.856805972003e-05
    74   -1.386226804664e-15
    75   -8.418137419916e-16
    76    4.863671821627e-05
    77    9.616984969257e-06
    78   -4.192745146967e-05
    79    5.365224425488e-15
    80    6.972679295316e-15
    81   -3.340044717052e-04
    82    5.509426889423e-05
    83   -2.182142156975e-04
    84    1.452724919516e-14
    85    1.274774230640e-14
    86   -1.077716953193e-03
    87   -1.294025513001e-03
    88    4.776698310440e-16
    89    1.407882308936e-05
    90   -1.385688637641e-05
    91   -1.337337015860e-15
    92   -7.832937179734e-17
    93    5.449198521847e-05
    94    4.814659182140e-05
    95    1.712180541119e-15
    96    5.199222711910e-05
    97    5.125128894741e-05
    98   -5.757596344678e-15
    99    9.522064872160e-15
   100   -3.462398056475e-04
   101   -2.260183511744e-05
   102    3.164761610478e-05
   103    4.933276585904e-16
   104    2.058112396667e-15
   105    2.502148961807e-05
   106    4.044193631321e-05
   107   -2.531501958471e-16
   108   -1.729448306983e-15
   109    7.525522256689e-05
   110    1.740690878318e-05
   111   -5.252441265145e-05
   112    3.492050568353e-05
   113    6.606767542737e-05
   114   -7.420828909569e-04
   115   -2.149369413702e-03
   116    3.338307610898e-06
   117   -3.098602099684e-06
   118    5.440472767880e-17
   119   -8.147900593422e-05
   120    2.479601385891e-06
   121   -1.465096054086e-15
   122    8.692999245012e-04
   123   -5.039604694667e-04
   124    6.855410124868e-15
   125    8.357535306176e-04
   126    4.171458765342e-04
   127    3.865992414233e-15
   128   -5.399347396310e-07
   129    6.760995478288e-17
   130   -2.900055522942e-18
   131    1.326144589683e-05
   132   -5.474786922271e-05
   133    1.593060697833e-05
   134   -2.078171645636e-16
   135   -7.957578077923e-17
   136   -4.979408523398e-05
   137    2.098095499263e-04
   138   -9.066311347811e-05
   139   -1.613562612652e-15
   140    6.468328773467e-15
   141   -2.013314700843e-04
   142    4.047191834133e-04
   143    2.843210480107e-16
   144   -4.234055255598e-05
   145    6.508706344134e-06
   146    8.960739049691e-17
   147    4.586901652715e-16
   148    1.875182367820e-05
   149    2.607110571011e-06
   150   -2.266770281136e-15
   151    9.506200201975e-05
   152   -5.698110807783e-05
   153   -1.403106318418e-15
   154   -1.242378405539e-15
   155   -1.553705820474e-04
   156   -2.302819823207e-04
   157    1.653031207011e-06
   158    2.768673698331e-16
   159   -7.299954667866e-16
   160    6.087034708597e-06
   161    7.039199228988e-06
   162    2.420480820678e-16
   163    3.088875313450e-16
   164    6.712708524240e-05
   165    3.860723485820e-05
   166    5.858105321949e-01
   167   -4.430401872262e-01
   168    3.728904877421e-02
   169   -2.735691899298e-02
   170   -1.302639992107e-02
   171    3.633985006539e-04
   172   -9.021315229034e-04
   173   -1.303817847569e-15
   174    9.674441219312e-04
   175   -1.502282504694e-03
   176   -1.287812600856e-15
   177   -3.699629806875e-03
   178    9.433689751824e-03
   179    1.059626014447e-15
   180   -2.122400419484e-03
   181    2.383237550186e-03
   182    4.313863943829e-15
   183   -4.286850315057e-04
   184    3.666883449816e-16
   185   -7.103480300171e-15
   186    1.397342923546e-04
   187    5.497675355477e-05
   188    9.704566812596e-04
   189    4.522533369122e-16
   190    2.498401684367e-15
   191   -1.940007992920e-05
   192   -1.801791906264e-04
   193    3.709014430426e-03
   194    3.608520153363e-15
   195   -2.232157126779e-15
   196   -3.121826566900e-03
   197   -9.376366776276e-04
   198    1.884644668046e-16
   199   -1.322442771475e-04
   200    8.587458692781e-05
   201   -1.392546252786e-16
   202    4.277691481226e-16
   203    2.710750488011e-04
   204   -2.137830337761e-04
   205   -4.285491992926e-16
   206    6.907552135340e-04
   207   -8.225763753623e-04
   208    1.892838533906e-15
   209   -1.632777310215e-15
   210   -1.889313873152e-03
   211    1.391465893404e-03
   212   -1.854765026906e-04
   213   -3.277065983472e-16
   214    1.366222321669e-16
   215    8.841317546516e-05
   216    2.906094652479e-05
   217   -5.241720457273e-17
   218   -2.393866780778e-16
   219    2.123042947117e-05
   220    3.149788751089e-04
   221   -2.974341977168e-04
   222    6.776646871708e-03
   223    1.111750479845e-02
   224   -1.693061734968e-04
   225   -4.025769549617e-04
   226    7.504906657236e-05
   227    8.527179676985e-16
   228   -3.723965538114e-03
   229    1.033089876021e-03
   230   -3.930724088195e-15
   231   -3.957489633323e-03
   232    1.273976019227e-03
   233   -2.594873628392e-15
   234   -4.569686958721e-05
   235   -1.376833162957e-16
   236   -3.542069356551e-16
   237    1.720449630042e-04
   238    2.076463727713e-05
   239   -2.127426369932e-04
   240    2.696757901191e-15
   241    5.994041886135e-18
   242    3.254721979266e-04
   243   -2.528822518922e-04
   244    6.877937442556e-16
   245   -4.993004375095e-04
   246    1.815753447516e-04
   247   -6.742380357629e-16
   248    2.200930509407e-16
   249    2.940268333029e-04
   250   -4.592111837233e-04
   251    2.667866381297e-05
   252   -5.676588023417e-05
   253   -4.307623588303e-04
   254   -4.566042676518e-04
   255   -1.712344532068e-07
   256    1.128937360776e-05
   257    5.256347657481e-17
   258   -8.002243025909e-05
   259   -2.073339571299e-05
   260   -2.407998625530e-15
   261   -8.542623655886e-04
   262    2.193756648665e-04
   263    9.678579620154e-17
   264    1.197148857647e-05
   265   -6.361815650899e-17
   266    5.921219287286e-16
   267   -1.755361600936e-05
   268   -3.639681128671e-06
   269    2.111402810641e-05
   270   -1.473367436695e-15
   271   -2.586347341805e-15
   272   -1.292235560986e-04
   273   -5.122413813451e-05
   274    1.854527816036e-16
   275   -7.644781073951e-06
   276    1.099639650174e-06
   277    3.793100358682e-16
   278   -3.464019588344e-16
   279   -1.545417161775e-05
   280   -3.058267270756e-05
   281   -9.291778665969e-06
   282    8.278875836510e-05
   283    8.402804673444e-04
   284    1.449579308656e-04
   285    7.896949990445e-06
   286   -1.157154380643e-05
   287    1.932154564133e-05
   288   -1.638569622946e-05
   289    1.875748483795e-05
   290   -1.467895327564e-04
   291    3.026694228527e-04
   292   -4.802061830358e-04
   293   -9.053163692949e-06
   294    1.076588033387e-05
   295   -4.018265657415e-06
   296   -1.056292796337e-06
   297    1.202365173899e-05
   298    1.111214863501e-05
   299   -1.640971010396e-05
   300    5.292254272579e-05
   301    3.868309766939e-05
   302   -3.593104535656e-05
   303   -3.702248187869e-05
   304   -8.747546162680e-06
   305   -2.399811636070e-05
   306    7.774863108150e-06
   307    1.298786183958e-05
   308   -1.135229126058e-05
   309   -1.211528614941e-05
   310   -9.433922811508e-06
   311   -9.291778666853e-06
   312    8.278875836908e-05
   313    8.402804674051e-04
   314    1.449579308815e-04
   315    7.896949986981e-06
   316   -1.157154380538e-05
   317   -1.932154564016e-05
   318   -1.638569621498e-05
   319    1.875748483374e-05
   320    1.467895327572e-04
   321    3.026694228848e-04
   322   -4.802061830424e-04
   323    9.053163712777e-06
   324    1.076588033309e-05
   325    4.018265656481e-06
   326    1.056292795193e-06
   327    1.202365173768e-05
   328    1.111214863529e-05
   329   -1.640971010401e-05
   330   -5.292254271216e-05
   331   -3.868309766859e-05
   332   -3.593104535085e-05
   333   -3.702248188765e-05
   334    8.747546162169e-06
   335   -2.399811635920e-05
   336    7.774863108679e-06
   337   -1.298786183892e-05
   338    1.135229125848e-05
   339   -1.211528614964e-05
   340   -9.433922812714e-06
Sym=X
Ene= -19.119714
Spin=Alpha
Occup=1
     1    1.474087746526e-04
     2    4.636022897678e-04
     3   -1.859356227569e-03
     4    1.633350058272e-02
     5    1.517602002793e-03
     6   -1.440822275269e-04
     7    3.320501453165e-04
     8   -5.419790605588e-16
     9    1.021916045824e-03
    10   -2.330243616516e-03
    11    1.634506243427e-16
    12    6.650135729258e-03
    13   -1.103676333347e-02
    14    1.612269468627e-14
    15   -1.633157442843e-04
    16    2.539296199536e-03
    17    5.059388449450e-15
    18    8.684656042468e-05
    19    9.032261717663e-17
    20    9.336915645989e-16
    21    1.546300465968e-05
    22   -1.044054246984e-05
    23   -2.289988166354e-03
    24    1.350037110234e-16
    25   -5.296130889190e-15
    26   -2.016898104710e-03
    27   -2.653534694118e-03
    28   -2.199512966628e-03
    29   -2.299129957276e-15
    30    1.751319816029e-15
    31   -3.962824236329e-03
    32   -5.136863364846e-03
    33   -1.863800510703e-16
    34   -4.785696535238e-05
    35    6.045656666812e-05
    36   -3.436044207679e-16
    37   -3.838160724766e-16
    38   -2.527423003056e-04
    39    3.257112996743e-05
    40   -6.392660779190e-15
    41   -4.996827599920e-04
    42    9.445534530485e-04
    43   -1.776674794393e-15
    44   -6.438307172959e-15
    45   -1.400083370056e-03
    46   -2.628712911281e-04
    47   -5.554050604636e-05
    48   -4.542510641183e-17
    49    1.037092952816e-15
    50   -4.838392399740e-05
    51   -6.661201427762e-05
    52   -1.932645006081e-15
    53    1.443943417932e-16
    54    8.576128624608e-05
    55   -3.495226569385e-04
    56    8.485871828211e-06
    57    3.050277169873e-05
    58   -1.113604316263e-04
    59    3.945141142375e-03
    60    3.216788625568e-03
    61    4.576260508264e-05
    62    2.314042683844e-05
    63   -2.364622557992e-15
    64   -3.085578185511e-04
    65   -2.357677095842e-04
    66    1.130107546578e-14
    67    3.358896898341e-04
    68    2.262361587709e-03
    69   -6.265984397301e-14
    70    3.065409143268e-04
    71   -6.982080542039e-05
    72   -3.018570345336e-14
    73   -1.379307931830e-05
    74    6.299172270493e-18
    75   -4.825459879631e-16
    76   -3.346358903545e-05
    77    3.551929218802e-05
    78    2.069943381241e-04
    79   -1.805748035637e-15
    80    1.126026118322e-14
    81   -1.127474741813e-04
    82    6.356204891642e-05
    83    2.304719918670e-03
    84   -4.083349896169e-16
    85   -2.066593007002e-14
    86    5.252156366576e-04
    87   -1.438622020458e-03
    88    2.315144332753e-16
    89    1.200714675821e-05
    90    8.564895772303e-05
    91   -3.989307070584e-16
    92   -1.743382058522e-15
    93    2.817867609655e-06
    94   -1.795346795886e-05
    95    4.047123421981e-15
    96   -3.400462116146e-05
    97   -1.498858634964e-04
    98   -9.163562412400e-16
    99   -8.587262370911e-15
   100   -3.635104329915e-04
   101   -2.106547347287e-04
   102   -3.361711644080e-05
   103   -4.279235860517e-16
   104   -1.607403306697e-15
   105   -5.953995349235e-05
   106    2.267548574160e-05
   107   -7.974603440162e-16
   108   -1.921763901726e-16
   109   -1.557918431603e-04
   110    2.209010489908e-05
   111    5.857007609353e-01
   112   -4.434140097400e-01
   113    3.519439208777e-02
   114   -2.648796424239e-02
   115   -5.394370889901e-03
   116   -3.984227107447e-04
   117    8.984193243809e-04
   118    2.042054835744e-15
   119   -7.187066441125e-04
   120    1.538890747699e-03
   121    3.469259069458e-15
   122    4.743618104000e-03
   123   -1.020061976101e-02
   124   -1.118786231260e-14
   125    8.719050634988e-04
   126   -2.516938019632e-03
   127   -1.039529919545e-15
   128   -2.232391073252e-04
   129   -3.693938302537e-15
   130    1.367536158444e-14
   131   -2.404302197614e-04
   132   -3.189514641720e-04
   133    6.466398735150e-04
   134    2.069084259279e-15
   135   -6.226984893415e-15
   136    5.679180220743e-04
   137    7.450705902637e-04
   138    1.360224335594e-03
   139    2.298173365911e-15
   140   -4.935439590414e-15
   141    1.986433210941e-03
   142    2.102117034079e-03
   143   -1.801307908780e-16
   144    2.648170175438e-05
   145   -5.447858432825e-05
   146   -1.072518742642e-16
   147   -2.895207384284e-16
   148    1.022308250160e-04
   149   -2.918497860501e-05
   150    2.484542081298e-15
   151   -2.624986482418e-04
   152    5.501385875811e-04
   153    1.955807651419e-15
   154    2.142676362434e-15
   155   -7.837197723541e-04
   156    2.243403604816e-04
   157   -7.485746315086e-05
   158   -4.466299513498e-17
   159    3.083358481985e-16
   160   -6.054212092046e-05
   161   -8.514999985086e-05
   162   -6.156864382608e-16
   163    1.273860790310e-16
   164    2.371320355494e-05
   165   -9.104243963804e-05
   166    5.166266643339e-05
   167   -3.938445699945e-05
   168    1.204211338940e-04
   169    1.300285450366e-04
   170   -4.789397680473e-04
   171   -1.044794136308e-05
   172   -1.983352395321e-05
   173    3.451999272652e-16
   174    6.678784704683e-05
   175    9.832515605200e-05
   176   -1.988658858131e-16
   177    7.102300160437e-05
   178   -1.582232292090e-04
   179    1.347227607827e-16
   180    2.181058017475e-03
   181   -1.044776864871e-03
   182   -2.241667903878e-15
   183   -1.385885389265e-05
   184   -2.829860248241e-16
   185    6.581463205523e-17
   186    3.197257367249e-05
   187    3.287651498737e-05
   188    5.199352830250e-05
   189    2.485579537840e-16
   190   -9.258345531546e-16
   191   -5.543739677856e-05
   192   -1.493894405788e-04
   193    3.059775394646e-04
   194    1.554149524740e-15
   195    9.902221199822e-16
   196   -9.465930772229e-04
   197   -4.497788587398e-04
   198    4.023695549451e-16
   199   -3.911151059443e-05
   200    1.914622244821e-05
   201    4.114486231741e-16
   202    3.523830040588e-16
   203    2.726029443909e-05
   204   -3.450863156329e-05
   205   -3.920710372048e-17
   206    1.503068103693e-04
   207   -5.008990359711e-05
   208   -7.330683170308e-16
   209   -1.049573783116e-15
   210   -3.448631005877e-04
   211    3.228386324509e-04
   212    2.606562145067e-06
   213   -9.934323351476e-18
   214    2.159559137245e-16
   215    2.966116934566e-05
   216   -6.071580851254e-06
   217    1.263349640830e-16
   218    1.240543344899e-16
   219    4.425021811655e-05
   220    1.480360553058e-05
   221   -6.287307725795e-05
   222    1.125261052130e-03
   223   -1.251061588711e-03
   224   -4.171467884137e-04
   225   -1.114854296217e-04
   226   -6.223357595998e-05
   227    3.497617299089e-16
   228   -1.787024481198e-04
   229    3.249691481538e-04
   230   -8.277212114793e-16
   231    3.405418851883e-04
   232   -2.317402406096e-05
   233   -7.436272974024e-17
   234   -5.883013746855e-05
   235   -3.967524824252e-17
   236   -1.460925663382e-16
   237    1.369525412719e-05
   238    2.398223525926e-05
   239    1.992595933994e-04
   240    5.432348927822e-16
   241    2.493895813195e-16
   242   -1.218080095415e-04
   243   -2.833122033325e-04
   244    3.090256175677e-16
   245   -6.507650575287e-05
   246   -4.808507915037e-05
   247   -3.482985474942e-16
   248   -8.645564045718e-17
   249    2.821619947681e-06
   250    3.515291936728e-05
   251   -3.500682220633e-05
   252    5.285977089770e-04
   253    2.372675978910e-03
   254   -1.294607518408e-04
   255   -2.137216060101e-05
   256    7.598859207344e-05
   257   -2.872708428965e-15
   258    2.325438103284e-04
   259   -1.644506115970e-04
   260    1.022364701578e-14
   261    4.586334776285e-04
   262    1.847035309839e-04
   263    3.186855584926e-15
   264    2.034453429315e-05
   265    1.642289417421e-16
   266    4.078702398441e-16
   267    1.434978723392e-05
   268    5.866227517631e-05
   269   -3.393863157768e-05
   270    2.347591623864e-15
   271    6.248474383985e-15
   272    3.030753497624e-04
   273   -2.057150408512e-04
   274   -1.330500030608e-15
   275    9.011178408066e-06
   276    2.139224545532e-05
   277   -9.895391996685e-16
   278    1.042817730869e-15
   279    6.163250025518e-05
   280    3.910398306571e-05
   281   -6.867517339267e-06
   282    1.986431270981e-04
   283   -4.332055956507e-03
   284   -3.854445912116e-04
   285    7.735106087710e-07
   286   -2.445657077672e-05
   287   -4.957902514202e-05
   288   -1.844739667965e-05
   289    1.030681833858e-04
   290    2.277767253608e-04
   291   -8.497523555886e-04
   292    1.145594039494e-03
   293    7.048706416735e-04
   294   -2.587119945651e-05
   295   -9.792881365279e-06
   296    4.386164671909e-06
   297    6.181748860476e-06
   298   -6.914058082494e-06
   299    2.655781065033e-05
   300    1.546893524753e-04
   301   -1.297460413106e-04
   302   -1.429092355000e-06
   303    7.662080227075e-05
   304   -6.520047948169e-06
   305   -1.675796049882e-05
   306    1.132777930818e-05
   307    1.997238438658e-05
   308   -8.922711726308e-06
   309    4.908482849855e-06
   310   -2.225530808534e-05
   311   -6.867517342748e-06
   312    1.986431271188e-04
   313   -4.332055956624e-03
   314   -3.854445912479e-04
   315    7.735106082854e-07
   316   -2.445657077619e-05
   317    4.957902513932e-05
   318   -1.844739668038e-05
   319    1.030681833809e-04
   320   -2.277767253468e-04
   321   -8.497523556088e-04
   322    1.145594039520e-03
   323   -7.048706417111e-04
   324   -2.587119945534e-05
   325    9.792881366529e-06
   326   -4.386164674165e-06
   327    6.181748860619e-06
   328   -6.914058082040e-06
   329    2.655781065475e-05
   330   -1.546893524779e-04
   331    1.297460413123e-04
   332   -1.429092356124e-06
   333    7.662080227116e-05
   334    6.520047950168e-06
   335   -1.675796049820e-05
   336    1.132777930657e-05
   337   -1.997238438756e-05
   338    8.922711725909e-06
   339    4.908482848851e-06
   340   -2.225530808489e-05
Sym=X
Ene= -10.313589
Spin=Alpha
Occup=1
     1    6.263707209934e-01
     2   -4.000059087187e-01
     3    4.760210515761e-02
     4   -2.364212636735e-02
     5   -1.548609683380e-02
     6    2.614939793201e-04
     7    9.760680475652e-04
     8   -1.394355880444e-14
     9    1.194341710510e-03
    10   -3.559399629904e-03
    11   -2.001174143151e-14
    12    1.006354646244e-02
    13   -6.268445452701e-03
    14    1.235253685024e-14
    15    1.108997281805e-03
    16   -1.437619137049e-03
    17    1.291427777180e-15
    18   -8.471149065976e-04
    19   -7.582593309920e-15
    20    1.299331674545e-14
    21   -1.371433492837e-04
    22   -2.708285766933e-04
    23   -9.682767299759e-04
    24    5.922990962574e-15
    25   -5.128986089466e-15
    26   -2.252325965767e-03
    27   -2.269268905566e-03
    28    7.024582056246e-03
    29   -2.133691981880e-15
    30    5.761633727221e-15
    31   -1.759098475450e-03
    32    2.953486130598e-03
    33   -8.565383377535e-16
    34   -2.813223792908e-04
    35    3.365040993292e-04
    36   -1.169675737797e-15
    37    5.822368954154e-16
    38   -1.671167982372e-03
    39    3.589649119397e-04
    40    5.109698725741e-16
    41   -5.120818156711e-04
    42    5.873775978695e-04
    43   -1.478180066143e-15