
                                 *****************
                                 * O   R   C   A *
                                 *****************

                                            #,                                       
                                            ###                                      
                                            ####                                     
                                            #####                                    
                                            ######                                   
                                           ########,                                 
                                     ,,################,,,,,                         
                               ,,#################################,,                 
                          ,,##########################################,,             
                       ,#########################################, ''#####,          
                    ,#############################################,,   '####,        
                  ,##################################################,,,,####,       
                ,###########''''           ''''###############################       
              ,#####''   ,,,,##########,,,,          '''####'''          '####       
            ,##' ,,,,###########################,,,                        '##       
           ' ,,###''''                  '''############,,,                           
         ,,##''                                '''############,,,,        ,,,,,,###''
      ,#''                                            '''#######################'''  
     '                                                          ''''####''''         
             ,#######,   #######,   ,#######,      ##                                
            ,#'     '#,  ##    ##  ,#'     '#,    #''#        ######   ,####,        
            ##       ##  ##   ,#'  ##            #'  '#       #        #'  '#        
            ##       ##  #######   ##           ,######,      #####,   #    #        
            '#,     ,#'  ##    ##  '#,     ,#' ,#      #,         ##   #,  ,#        
             '#######'   ##     ##  '#######'  #'      '#     #####' # '####'        



                  #######################################################
                  #                        -***-                        #
                  #          Department of theory and spectroscopy      #
                  #    Directorship and core code : Frank Neese         #
                  #        Max Planck Institute fuer Kohlenforschung    #
                  #                Kaiser Wilhelm Platz 1               #
                  #                 D-45470 Muelheim/Ruhr               #
                  #                      Germany                        #
                  #                                                     #
                  #                  All rights reserved                #
                  #                        -***-                        #
                  #######################################################


                         Program Version 5.0.3 -  RELEASE  -


 With contributions from (in alphabetic order):
   Daniel Aravena         : Magnetic Suceptibility
   Michael Atanasov       : Ab Initio Ligand Field Theory (pilot matlab implementation)
   Alexander A. Auer      : GIAO ZORA, VPT2 properties, NMR spectrum
   Ute Becker             : Parallelization
   Giovanni Bistoni       : ED, misc. LED, open-shell LED, HFLD
   Martin Brehm           : Molecular dynamics
   Dmytro Bykov           : SCF Hessian
   Vijay G. Chilkuri      : MRCI spin determinant printing, contributions to CSF-ICE
   Dipayan Datta          : RHF DLPNO-CCSD density
   Achintya Kumar Dutta   : EOM-CC, STEOM-CC
   Dmitry Ganyushin       : Spin-Orbit,Spin-Spin,Magnetic field MRCI
   Miquel Garcia          : C-PCM and meta-GGA Hessian, CC/C-PCM, Gaussian charge scheme
   Yang Guo               : DLPNO-NEVPT2, F12-NEVPT2, CIM, IAO-localization
   Andreas Hansen         : Spin unrestricted coupled pair/coupled cluster methods
   Benjamin Helmich-Paris : MC-RPA, TRAH-SCF, COSX integrals
   Lee Huntington         : MR-EOM, pCC
   Robert Izsak           : Overlap fitted RIJCOSX, COSX-SCS-MP3, EOM
   Marcus Kettner         : VPT2
   Christian Kollmar      : KDIIS, OOCD, Brueckner-CCSD(T), CCSD density, CASPT2, CASPT2-K
   Simone Kossmann        : Meta GGA functionals, TD-DFT gradient, OOMP2, MP2 Hessian
   Martin Krupicka        : Initial AUTO-CI
   Lucas Lang             : DCDCAS
   Marvin Lechner         : AUTO-CI (C++ implementation), FIC-MRCC
   Dagmar Lenk            : GEPOL surface, SMD
   Dimitrios Liakos       : Extrapolation schemes; Compound Job, initial MDCI parallelization
   Dimitrios Manganas     : Further ROCIS development; embedding schemes
   Dimitrios Pantazis     : SARC Basis sets
   Anastasios Papadopoulos: AUTO-CI, single reference methods and gradients
   Taras Petrenko         : DFT Hessian,TD-DFT gradient, ASA, ECA, R-Raman, ABS, FL, XAS/XES, NRVS
   Peter Pinski           : DLPNO-MP2, DLPNO-MP2 Gradient
   Christoph Reimann      : Effective Core Potentials
   Marius Retegan         : Local ZFS, SOC
   Christoph Riplinger    : Optimizer, TS searches, QM/MM, DLPNO-CCSD(T), (RO)-DLPNO pert. Triples
   Tobias Risthaus        : Range-separated hybrids, TD-DFT gradient, RPA, STAB
   Michael Roemelt        : Original ROCIS implementation
   Masaaki Saitow         : Open-shell DLPNO-CCSD energy and density
   Barbara Sandhoefer     : DKH picture change effects
   Avijit Sen             : IP-ROCIS
   Kantharuban Sivalingam : CASSCF convergence, NEVPT2, FIC-MRCI
   Bernardo de Souza      : ESD, SOC TD-DFT
   Georgi Stoychev        : AutoAux, RI-MP2 NMR, DLPNO-MP2 response
   Willem Van den Heuvel  : Paramagnetic NMR
   Boris Wezisla          : Elementary symmetry handling
   Frank Wennmohs         : Technical directorship


 We gratefully acknowledge several colleagues who have allowed us to
 interface, adapt or use parts of their codes:
   Stefan Grimme, W. Hujo, H. Kruse, P. Pracht,  : VdW corrections, initial TS optimization,
                  C. Bannwarth, S. Ehlert          DFT functionals, gCP, sTDA/sTD-DF
   Ed Valeev, F. Pavosevic, A. Kumar             : LibInt (2-el integral package), F12 methods
   Garnet Chan, S. Sharma, J. Yang, R. Olivares  : DMRG
   Ulf Ekstrom                                   : XCFun DFT Library
   Mihaly Kallay                                 : mrcc  (arbitrary order and MRCC methods)
   Jiri Pittner, Ondrej Demel                    : Mk-CCSD
   Frank Weinhold                                : gennbo (NPA and NBO analysis)
   Christopher J. Cramer and Donald G. Truhlar   : smd solvation model
   Lars Goerigk                                  : TD-DFT with DH, B97 family of functionals
   V. Asgeirsson, H. Jonsson                     : NEB implementation
   FAccTs GmbH                                   : IRC, NEB, NEB-TS, DLPNO-Multilevel, CI-OPT
                                                   MM, QMMM, 2- and 3-layer-ONIOM, Crystal-QMMM,
                                                   LR-CPCM, SF, NACMEs, symmetry and pop. for TD-DFT,
                                                   nearIR, NL-DFT gradient (VV10), updates on ESD,
                                                   ML-optimized integration grids
   S Lehtola, MJT Oliveira, MAL Marques          : LibXC Library
   Liviu Ungur et al                             : ANISO software


 Your calculation uses the libint2 library for the computation of 2-el integrals
 For citations please refer to: http://libint.valeyev.net

 Your ORCA version has been built with support for libXC version: 5.1.0
 For citations please refer to: https://tddft.org/programs/libxc/

 This ORCA versions uses:
   CBLAS   interface :  Fast vector & matrix operations
   LAPACKE interface :  Fast linear algebra routines
   SCALAPACK package :  Parallel linear algebra routines
   Shared memory     :  Shared parallel matrices
   BLAS/LAPACK       :  OpenBLAS 0.3.15  USE64BITINT DYNAMIC_ARCH NO_AFFINITY Haswell SINGLE_THREADED
        Core in use  :  Haswell
   Copyright (c) 2011-2014, The OpenBLAS Project


Reading of a custom orbital basis requested
Basis file: ../../../../basis/aug-cc-pVQZ-CDF.bas
READING GTO-BASIS: HYDROGEN
READING GTO-BASIS: BORON
READING GTO-BASIS: CARBON
READING GTO-BASIS: NITROGEN
READING GTO-BASIS: OXYGEN
READING GTO-BASIS: FLUORINE
READING GTO-BASIS: NEON
Basis read successfully!



***************************************
The coordinates will be read from file: ../../../../../chem_database/N.xyz
***************************************


================================================================================

----- Orbital basis set information -----
Basis read from file: ../../../../basis/aug-cc-pVQZ-CDF.bas

================================================================================
                                        WARNINGS
                       Please study these warnings very carefully!
================================================================================


INFO   : the flag for use of the SHARK integral package has been found!


WARNING: TRAH-SCF with ROHF wave function is not implemented yet
  ===> : Turning TRAH off

================================================================================
                                       INPUT FILE
================================================================================
NAME = mol.inp
|  1> # ================================================================
|  2> # Orca input file
|  3> # ================================================================
|  4> ! ROHF cc-pVDZ VeryTightSCF UseSym
|  5> ! PAL4
|  6> 
|  7> %scf
|  8>   Guess = HCore
|  9>   ROHF_case SAHF    # configuration averaged HF
| 10>   ROHF_NumOp   2    # 2 operators in this case: closed, open
| 11>   ROHF_NOrb[1] 3    # 3 orbitals in first open shell
| 12>   ROHF_NEl[1]  3    # 3 electrons in first open shell
| 13> end
| 14> 
| 15> %basis
| 16> GTOName = "../../../../basis/aug-cc-pVQZ-CDF.bas";
| 17> newecp N
| 18>  N_core 2
| 19>  lmax d
| 20>  d 8
| 21>   1           13.18602441           5.00000000    1
| 22>   2           22.25555763      -13918.57794375    2
| 23>   3           21.78350954       13903.20724194    2
| 24>   4           15.60063518         -79.02021620    3
| 25>   5           11.36971885         144.95033825    3
| 26>   6           17.52955043       28259.76854431    4
| 27>   7           20.49314072      -14261.17038436    4
| 28>   8           16.82109005      -20903.66399842    4
| 29>  s 8
| 30>   1            9.63206092       -3329.42158578    2
| 31>   2           12.69772672        3344.90544668    2
| 32>   3           12.16735131        1062.66455633    3
| 33>   4           16.20831202        3065.60324819    3
| 34>   5           15.23511053       -4128.26780452    3
| 35>   6           10.11153126       -2259.59421502    4
| 36>   7           14.82170225        1461.74765015    4
| 37>   8           10.62976302       11201.35028349    4
| 38>  p 8
| 39>   1           12.33817511       32795.80200146    2
| 40>   2           14.87589395      -32799.16502498    2
| 41>   3           11.59164752       -2330.76350229    3
| 42>   4           14.54435394       -5324.40115625    3
| 43>   5           13.61733588        7655.16465854    3
| 44>   6           13.50806484      -81340.75461562    4
| 45>   7           23.06725161       56201.11906152    4
| 46>   8           22.86930101      -58136.91681549    4
| 47> end
| 48> 
| 49> end
| 50> 
| 51> * xyzfile 0 4 ../../../../../chem_database/N.xyz
| 52> 
| 53>                          ****END OF INPUT****
================================================================================

------------------------------------------------------------------------------
                            SYMMETRY HANDLING SETUP
------------------------------------------------------------------------------

------------------
SYMMETRY DETECTION
------------------
The point group will now be determined using a tolerance of 1.0000e-04.
The Z matrix contains a single non-dummy atom.
No further testing needed for point group Kh.
This point group has been found:    Kh
Largest non-degenerate subgroup:    D2h


Symmetry-perfected Cartesians (point groups Kh and D2h):

Atom          Symmetry-perfected Cartesians (x, y, z; au)
  0       0.000000000000    0.000000000000    0.000000000000


-----------------------------------------------
SYMMETRY-PERFECTED CARTESIAN COORDINATES (A.U.)
-----------------------------------------------
Warning (ORCA_SYM): Coordinates were not cleaned so far!

------------------
SYMMETRY REDUCTION
------------------
ORCA supports only abelian point groups.
It is now checked, if the determined point group is supported:
Point Group ( D2h   ) is          ... supported

(Re)building abelian point group:
Creating Character Table          ... done
Making direct product table       ... done
Constructing symmetry operations  ... done
Creating atom transfer table      ... done
Creating asymmetric unit          ... done

----------------------
ASYMMETRIC UNIT IN D2h
----------------------
  #  AT     MASS              COORDS (A.U.)             BAS
   0 N   14.0070   0.00000000   0.00000000   0.00000000   0

----------------------
SYMMETRY ADAPTED BASIS
----------------------
The coefficients for the symmetry adapted linear combinations (SALCS)
of basis functions will now be computed:
Number of basis functions         ...    79
Preparing memory                  ... done
Constructing Gamma(red)           ... done
Reducing Gamma(red)               ... done
Constructing SALCs                ... done
Checking SALC integrity           ... nothing suspicious
Normalizing SALCs                 ... done

Storing the symmetry object:
Symmetry file                     ... mol.sym.tmp
Writing symmetry information      ... done

                       ****************************
                       * Single Point Calculation *
                       ****************************

---------------------------------
CARTESIAN COORDINATES (ANGSTROEM)
---------------------------------
  N      0.000000    0.000000    0.000000

----------------------------
CARTESIAN COORDINATES (A.U.)
----------------------------
  NO LB      ZA    FRAG     MASS         X           Y           Z
   0 N     5.0000*   0    14.007    0.000000    0.000000    0.000000
* core charge reduced due to ECP

--------------------------------
INTERNAL COORDINATES (ANGSTROEM)
--------------------------------
 N      0   0   0     0.000000000000     0.00000000     0.00000000

---------------------------
INTERNAL COORDINATES (A.U.)
---------------------------
 N      0   0   0     0.000000000000     0.00000000     0.00000000

---------------------
BASIS SET INFORMATION
---------------------
There are 1 groups of distinct atoms

 Group   1 Type N   : 14s14p4d3f2g contracted to 5s5p4d3f2g pattern {101111/101111/1111/111/11}

Atom   0N    basis set group =>   1
-------------------------
ECP PARAMETER INFORMATION
-------------------------

 Group 1, Type N  ECP (replacing 2 core electrons, lmax=2)

Atom   0N    ECP group =>   1



           ************************************************************
           *        Program running with 4 parallel MPI-processes     *
           *              working on a common directory               *
           ************************************************************
------------------------------------------------------------------------------
                           ORCA GTO INTEGRAL CALCULATION
------------------------------------------------------------------------------
------------------------------------------------------------------------------
                   ___                                                        
                  /   \      - P O W E R E D   B Y -                         
                 /     \                                                     
                 |  |  |   _    _      __       _____    __    __             
                 |  |  |  | |  | |    /  \     |  _  \  |  |  /  |          
                  \  \/   | |  | |   /    \    | | | |  |  | /  /          
                 / \  \   | |__| |  /  /\  \   | |_| |  |  |/  /          
                |  |  |   |  __  | /  /__\  \  |    /   |      \           
                |  |  |   | |  | | |   __   |  |    \   |  |\   \          
                \     /   | |  | | |  |  |  |  | |\  \  |  | \   \       
                 \___/    |_|  |_| |__|  |__|  |_| \__\ |__|  \__/        
                                                                              
                      - O R C A' S   B I G   F R I E N D -                    
                                      &                                       
                       - I N T E G R A L  F E E D E R -                       
                                                                              
 v1 FN, 2020, v2 2021                                                         
------------------------------------------------------------------------------


Reading SHARK input file mol.SHARKINP.tmp ... ok
----------------------
SHARK INTEGRAL PACKAGE
----------------------

Number of atoms                             ...      1
Number of basis functions                   ...     79
Number of shells                            ...     19
Maximum angular momentum                    ...      4
Integral batch strategy                     ... SHARK/LIBINT Hybrid
RI-J (if used) integral strategy            ... SPLIT-RIJ (Revised 2003 algorithm where possible)
Printlevel                                  ...      1
Contraction scheme used                     ... SEGMENTED contraction
Coulomb Range Separation                    ... NOT USED
Exchange Range Separation                   ... NOT USED
Finite Nucleus Model                        ... NOT USED
Auxiliary Coulomb fitting basis             ... NOT available
Auxiliary J/K fitting basis                 ... NOT available
Auxiliary Correlation fitting basis         ... NOT available
Auxiliary 'external' fitting basis          ... NOT available
Integral threshold                          ...     1.000000e-12
Primitive cut-off                           ...     1.000000e-14
Primitive pair pre-selection threshold      ...     1.000000e-14

Calculating pre-screening integrals         ... done (  0.1 sec) Dimension = 19
Organizing shell pair data                  ... done (  0.0 sec)
Shell pair information
Total number of shell pairs                 ...       190
Shell pairs after pre-screening             ...       190
Total number of primitive shell pairs       ...       793
Primitive shell pairs kept                  ...       793
          la=0 lb=0:     15 shell pairs
          la=1 lb=0:     25 shell pairs
          la=1 lb=1:     15 shell pairs
          la=2 lb=0:     20 shell pairs
          la=2 lb=1:     20 shell pairs
          la=2 lb=2:     10 shell pairs
          la=3 lb=0:     15 shell pairs
          la=3 lb=1:     15 shell pairs
          la=3 lb=2:     12 shell pairs
          la=3 lb=3:      6 shell pairs
          la=4 lb=0:     10 shell pairs
          la=4 lb=1:     10 shell pairs
          la=4 lb=2:      8 shell pairs
          la=4 lb=3:      6 shell pairs
          la=4 lb=4:      3 shell pairs

Calculating one electron integrals          ... done (  0.0 sec)
Calculating ECP integrals                   ... done (  0.1 sec)
Calculating Nuclear repulsion               ... done (  0.0 sec) ENN=      0.000000000000 Eh

SHARK setup successfully completed in   0.2 seconds

Maximum memory used throughout the entire GTOINT-calculation: 33.5 MB


           ************************************************************
           *        Program running with 4 parallel MPI-processes     *
           *              working on a common directory               *
           ************************************************************
-------------------------------------------------------------------------------
                                 ORCA SCF
-------------------------------------------------------------------------------

------------
SCF SETTINGS
------------
Hamiltonian:
 Ab initio Hamiltonian  Method          .... Hartree-Fock(GTOs)


General Settings:
 Integral files         IntName         .... mol
 Hartree-Fock type      HFTyp           .... ROHF
 Total Charge           Charge          ....    0
 Multiplicity           Mult            ....    4
 Number of Electrons    NEL             ....    5
 Basis Dimension        Dim             ....   79
 Nuclear Repulsion      ENuc            ....      0.0000000000 Eh

 Symmetry handling      UseSym         .... ON
 Point group                           .... D2h
 Used point group                      .... D2h
 Number of irreps                      .... 8
   Irrep   Ag has   19 symmetry adapted basis functions (ofs=   0)
   Irrep  B1g has    8 symmetry adapted basis functions (ofs=  19)
   Irrep  B2g has    8 symmetry adapted basis functions (ofs=  27)
   Irrep  B3g has    8 symmetry adapted basis functions (ofs=  35)
   Irrep   Au has    3 symmetry adapted basis functions (ofs=  43)
   Irrep  B1u has   11 symmetry adapted basis functions (ofs=  46)
   Irrep  B2u has   11 symmetry adapted basis functions (ofs=  57)
   Irrep  B3u has   11 symmetry adapted basis functions (ofs=  68)

Convergence Acceleration:
 DIIS                   CNVDIIS         .... on
   Start iteration      DIISMaxIt       ....    12
   Startup error        DIISStart       ....  0.200000
   # of expansion vecs  DIISMaxEq       ....     5
   Bias factor          DIISBfac        ....   1.050
   Max. coefficient     DIISMaxC        ....  10.000
 Trust-Rad. Augm. Hess. CNVTRAH         .... off
 SOSCF                  CNVSOSCF        .... off
 Level Shifting         CNVShift        .... on
   Level shift para.    LevelShift      ....    0.2500
   Turn off err/grad.   ShiftErr        ....    0.0010
 Zerner damping         CNVZerner       .... off
 Static damping         CNVDamp         .... on
   Fraction old density DampFac         ....    0.7000
   Max. Damping (<1)    DampMax         ....    0.9800
   Min. Damping (>=0)   DampMin         ....    0.0000
   Turn off err/grad.   DampErr         ....    0.1000
 Fernandez-Rico         CNVRico         .... off

SCF Procedure:
 Maximum # iterations   MaxIter         ....   125
 SCF integral mode      SCFMode         .... Direct
   Integral package                     .... SHARK and LIBINT hybrid scheme
 Reset frequency        DirectResetFreq ....    20
 Integral Threshold     Thresh          ....  1.000e-12 Eh
 Primitive CutOff       TCut            ....  1.000e-14 Eh

Convergence Tolerance:
 Convergence Check Mode ConvCheckMode   .... Total+1el-Energy
 Convergence forced     ConvForced      .... 0
 Energy Change          TolE            ....  1.000e-09 Eh
 1-El. energy change                    ....  1.000e-06 Eh
 DIIS Error             TolErr          ....  1.000e-08


Diagonalization of the overlap matrix:
Smallest eigenvalue                        ... 3.619e-03
Time for diagonalization                   ...    0.004 sec
Threshold for overlap eigenvalues          ... 1.000e-08
Number of eigenvalues below threshold      ... 0
Time for construction of square roots      ...    0.002 sec
Producing symmetrization matrix            ... done (   0.001 sec)
Total time needed                          ...    0.009 sec

--------------------
INITIAL GUESS: HCORE
--------------------
Diagonalizing the Hamiltonian                      ... done
Diagonalizing the Hamiltonian                      ... done
Back transforming the eigenvectors                 ... done
AVERAGE-CONFIGURATION (SAHF) CASE FOUND

-------------------
FINAL ROHF SETTINGS
-------------------
Number of operators             ... 2
  operator   0:   1 orbitals   2 electrons n(mue)= 2.000
  operator   1:   3 orbitals   3 electrons n(mue)= 1.000
Vector coupling coefficients a and b (Zerner convention):
   1.000    1.000           1.000    1.000 
   1.000    1.000           1.000    2.000 

Occupation of irreps:
Operator 0
    Ag occ= 1
   B1g occ= 0
   B2g occ= 0
   B3g occ= 0
    Au occ= 0
   B1u occ= 0
   B2u occ= 0
   B3u occ= 0
Operator 1
    Ag occ= 0
   B1g occ= 0
   B2g occ= 0
   B3g occ= 0
    Au occ= 0
   B1u occ= 1
   B2u occ= 1
   B3u occ= 1

                      -----------------
                      INTIAL GUESS DONE 
                      -----------------
--------------
SCF ITERATIONS
--------------
ITER       Energy         Delta-E        Max-DP      RMS-DP      [F,P]     Damp
               ***  Starting incremental Fock matrix formation  ***
  0     -8.6232090328   0.000000000000 0.79207387  0.01503954  0.5650702 0.7000
                            ****Activating DIIS****
  1     -8.3236785110   0.299530521769 1.61378103  0.02926320  0.0666515 0.0000
  2     -8.3539416751  -0.030263164071 0.15875930  0.00302929  0.2307873 0.7000
  3     -7.7501747531   0.603766921955 0.11033323  0.00210243  0.1860963 0.7000
  4     -7.6550508236   0.095123929549 0.07684199  0.00146251  0.1928643 0.7000
  5     -7.5884284169   0.066622406656 0.06972998  0.00133968  0.2065687 0.7000
  6     -7.5017005087   0.086727908230 0.47547751  0.00964682  0.2055584 0.7000
  7     -9.0667538296  -1.565053320882 0.98143306  0.02069247  0.0492918 0.0000
  8     -9.4459456759  -0.379191846387 0.00868941  0.00014810  0.2083648 0.7000
  9     -9.4548331611  -0.008887485160 0.00614157  0.00009720  0.1928573 0.7000
 10     -9.4552347561  -0.000401594952 0.00293392  0.00004226  0.1927695 0.7000
 11     -9.4535072678   0.001727488272 0.02843699  0.00056177  0.1952122 0.7000
 12     -9.4150895521   0.038417715737 0.12871050  0.00261658  0.2483956 0.7000
 13     -9.5617035312  -0.146613979197 0.42354826  0.00816319  0.0367636 0.0000
 14     -9.6370285177  -0.075324986499 0.05126764  0.00059863  0.0280316 0.0000
 15     -9.6382331751  -0.001204657315 0.01608305  0.00030272  0.0048018 0.0000
 16     -9.6385494182  -0.000316243140 0.00392676  0.00008526  0.0023351 0.0000
 17     -9.6385715847  -0.000022166532 0.00110677  0.00001453  0.0006160 0.0000
 18     -9.6385727937  -0.000001209012 0.00028173  0.00000531  0.0001560 0.0000
 19     -9.6385728800  -0.000000086249 0.00009417  0.00000137  0.0000320 0.0000
               *** Restarting incremental Fock matrix formation ***
                                   *** Resetting DIIS ***
 20     -9.6385728835  -0.000000003516 0.00003247  0.00000059  0.0000136 0.0000
                 **** Energy Check signals convergence ****

               *****************************************************
               *                     SUCCESS                       *
               *           SCF CONVERGED AFTER  21 CYCLES          *
               *****************************************************


----------------
TOTAL SCF ENERGY
----------------

Total Energy       :           -9.63857288 Eh            -262.27890 eV

Components:
Nuclear Repulsion  :            0.00000000 Eh               0.00000 eV
Electronic Energy  :           -9.63857288 Eh            -262.27890 eV
One Electron Energy:          -15.68361278 Eh            -426.77280 eV
Two Electron Energy:            6.04503990 Eh             164.49390 eV

Virial components:
Potential Energy   :          -16.37612829 Eh            -445.61711 eV
Kinetic Energy     :            6.73755540 Eh             183.33820 eV
Virial Ratio       :            2.43057419


---------------
SCF CONVERGENCE
---------------

  Last Energy change         ...   -5.6354e-10  Tolerance :   1.0000e-09
  Last MAX-Density change    ...    2.3115e-05  Tolerance :   1.0000e-08
  Last RMS-Density change    ...    4.5456e-07  Tolerance :   1.0000e-09
  Last DIIS Error            ...    7.2188e-06  Tolerance :   1.0000e-08

             **** THE GBW FILE WAS UPDATED (mol.gbw) ****
             **** DENSITY mol.scfp WAS UPDATED ****
             **** ENERGY FILE WAS UPDATED (mol.en.tmp) ****
             **** THE GBW FILE WAS UPDATED (mol.gbw) ****
             **** DENSITY mol.scfp WAS UPDATED ****
----------------
ORBITAL ENERGIES
----------------

  NO   OCC          E(Eh)            E(eV)    Irrep 
   0   2.0000      -0.945342       -25.7241    1-Ag
   1   1.0000      -0.567616       -15.4456    1-B2u
   2   1.0000      -0.567616       -15.4456    1-B1u
   3   1.0000      -0.567616       -15.4456    1-B3u
   4   0.0000       0.111893         3.0448    2-B3u
   5   0.0000       0.111893         3.0448    2-B1u
   6   0.0000       0.111893         3.0448    2-B2u
   7   0.0000       0.126955         3.4546    2-Ag
   8   0.0000       0.344740         9.3809    1-B1g
   9   0.0000       0.344740         9.3809    3-Ag
  10   0.0000       0.344740         9.3809    1-B3g
  11   0.0000       0.344740         9.3809    4-Ag
  12   0.0000       0.344740         9.3809    1-B2g
  13   0.0000       0.565687        15.3931    3-B1u
  14   0.0000       0.565687        15.3931    3-B3u
  15   0.0000       0.565687        15.3931    3-B2u
  16   0.0000       0.718658        19.5557    5-Ag
  17   0.0000       1.011214        27.5165    4-B1u
  18   0.0000       1.011214        27.5165    4-B2u
  19   0.0000       1.011214        27.5165    5-B1u
  20   0.0000       1.011214        27.5165    4-B3u
  21   0.0000       1.011214        27.5165    1-Au
  22   0.0000       1.011214        27.5165    5-B3u
  23   0.0000       1.011214        27.5165    5-B2u
  24   0.0000       1.118964        30.4486    2-B2g
  25   0.0000       1.118964        30.4486    6-Ag
  26   0.0000       1.118964        30.4486    2-B3g
  27   0.0000       1.118964        30.4486    7-Ag
  28   0.0000       1.118964        30.4486    2-B1g
  29   0.0000       2.084587        56.7245    6-B2u
  30   0.0000       2.084587        56.7245    6-B1u
  31   0.0000       2.084587        56.7245    6-B3u
  32   0.0000       2.808642        76.4270    8-Ag
  33   0.0000       2.808642        76.4270    3-B3g
  34   0.0000       2.808642        76.4270    3-B1g
  35   0.0000       2.808642        76.4270    9-Ag
  36   0.0000       2.808642        76.4270   10-Ag
  37   0.0000       2.808642        76.4270    3-B2g
  38   0.0000       2.808642        76.4270    4-B1g
  39   0.0000       2.808642        76.4270    4-B3g
  40   0.0000       2.808642        76.4270    4-B2g
  41   0.0000       3.024485        82.3004   11-Ag
  42   0.0000       3.100709        84.3746    7-B1u
  43   0.0000       3.100709        84.3746    7-B3u
  44   0.0000       3.100709        84.3746    7-B2u
  45   0.0000       3.100709        84.3746    8-B3u
  46   0.0000       3.100709        84.3746    2-Au
  47   0.0000       3.100709        84.3746    8-B1u
  48   0.0000       3.100709        84.3746    8-B2u
  49   0.0000       3.258471        88.6675    5-B2g
  50   0.0000       3.258471        88.6675   12-Ag
  51   0.0000       3.258471        88.6675    5-B1g
  52   0.0000       3.258471        88.6675    5-B3g
  53   0.0000       3.258471        88.6675   13-Ag
  54   0.0000       7.669347       208.6936    9-B1u
  55   0.0000       7.669347       208.6936    9-B2u
  56   0.0000       7.669347       208.6936    9-B3u
  57   0.0000       8.134367       221.3474   14-Ag
  58   0.0000       8.134367       221.3474   15-Ag
  59   0.0000       8.134367       221.3474    6-B3g
  60   0.0000       8.134367       221.3474    6-B1g
  61   0.0000       8.134367       221.3474   16-Ag
  62   0.0000       8.134367       221.3474    7-B3g
  63   0.0000       8.134367       221.3474    7-B1g
  64   0.0000       8.134367       221.3474    6-B2g
  65   0.0000       8.134367       221.3474    7-B2g
  66   0.0000       8.858697       241.0574   10-B1u
  67   0.0000       8.858697       241.0574   10-B3u
  68   0.0000       8.858697       241.0574   10-B2u
  69   0.0000       8.858697       241.0574    3-Au
  70   0.0000       8.858697       241.0574   11-B3u
  71   0.0000       8.858697       241.0574   11-B1u
  72   0.0000       8.858697       241.0574   11-B2u
  73   0.0000       9.657818       262.8026    8-B2g
  74   0.0000       9.657818       262.8026   17-Ag
  75   0.0000       9.657818       262.8026    8-B3g
  76   0.0000       9.657818       262.8026   18-Ag
  77   0.0000       9.657818       262.8026    8-B1g
  78   0.0000      12.840058       349.3957   19-Ag

                    ********************************
                    * MULLIKEN POPULATION ANALYSIS *
                    ********************************

--------------------------------------------
MULLIKEN ATOMIC CHARGES AND SPIN POPULATIONS
--------------------------------------------
   0 N :   -0.000000    3.000000
Sum of atomic charges         :   -0.0000000
Sum of atomic spin populations:    3.0000000

-----------------------------------------------------
MULLIKEN REDUCED ORBITAL CHARGES AND SPIN POPULATIONS
-----------------------------------------------------
CHARGE
  0 N s       :     2.000000  s :     2.000000
      pz      :     1.000000  p :     3.000000
      px      :     1.000000
      py      :     1.000000
      dz2     :     0.000000  d :     0.000000
      dxz     :     0.000000
      dyz     :     0.000000
      dx2y2   :     0.000000
      dxy     :     0.000000
      f0      :     0.000000  f :     0.000000
      f+1     :     0.000000
      f-1     :     0.000000
      f+2     :     0.000000
      f-2     :     0.000000
      f+3     :     0.000000
      f-3     :     0.000000
      g0      :     0.000000  g :     0.000000
      g+1     :     0.000000
      g-1     :     0.000000
      g+2     :     0.000000
      g-2     :     0.000000
      g+3     :     0.000000
      g-3     :     0.000000
      g+4     :     0.000000
      g-4     :     0.000000

SPIN
  0 N s       :     0.000000  s :     0.000000
      pz      :     1.000000  p :     3.000000
      px      :     1.000000
      py      :     1.000000
      dz2     :     0.000000  d :     0.000000
      dxz     :     0.000000
      dyz     :     0.000000
      dx2y2   :     0.000000
      dxy     :     0.000000
      f0      :     0.000000  f :     0.000000
      f+1     :     0.000000
      f-1     :     0.000000
      f+2     :     0.000000
      f-2     :     0.000000
      f+3     :     0.000000
      f-3     :     0.000000
      g0      :     0.000000  g :     0.000000
      g+1     :     0.000000
      g-1     :     0.000000
      g+2     :     0.000000
      g-2     :     0.000000
      g+3     :     0.000000
      g-3     :     0.000000
      g+4     :     0.000000
      g-4     :     0.000000


                     *******************************
                     * LOEWDIN POPULATION ANALYSIS *
                     *******************************

-------------------------------------------
LOEWDIN ATOMIC CHARGES AND SPIN POPULATIONS
-------------------------------------------
   0 N :   -0.000000    3.000000

----------------------------------------------------
LOEWDIN REDUCED ORBITAL CHARGES AND SPIN POPULATIONS
----------------------------------------------------
CHARGE
  0 N s       :     2.000000  s :     2.000000
      pz      :     1.000000  p :     3.000000
      px      :     1.000000
      py      :     1.000000
      dz2     :     0.000000  d :     0.000000
      dxz     :     0.000000
      dyz     :     0.000000
      dx2y2   :     0.000000
      dxy     :     0.000000
      f0      :     0.000000  f :     0.000000
      f+1     :     0.000000
      f-1     :     0.000000
      f+2     :     0.000000
      f-2     :     0.000000
      f+3     :     0.000000
      f-3     :     0.000000
      g0      :     0.000000  g :     0.000000
      g+1     :     0.000000
      g-1     :     0.000000
      g+2     :     0.000000
      g-2     :     0.000000
      g+3     :     0.000000
      g-3     :     0.000000
      g+4     :     0.000000
      g-4     :     0.000000

SPIN
  0 N s       :     0.000000  s :     0.000000
      pz      :     1.000000  p :     3.000000
      px      :     1.000000
      py      :     1.000000
      dz2     :     0.000000  d :     0.000000
      dxz     :     0.000000
      dyz     :     0.000000
      dx2y2   :     0.000000
      dxy     :     0.000000
      f0      :     0.000000  f :     0.000000
      f+1     :     0.000000
      f-1     :     0.000000
      f+2     :     0.000000
      f-2     :     0.000000
      f+3     :     0.000000
      f-3     :     0.000000
      g0      :     0.000000  g :     0.000000
      g+1     :     0.000000
      g-1     :     0.000000
      g+2     :     0.000000
      g-2     :     0.000000
      g+3     :     0.000000
      g-3     :     0.000000
      g+4     :     0.000000
      g-4     :     0.000000


                      *****************************
                      * MAYER POPULATION ANALYSIS *
                      *****************************

  NA   - Mulliken gross atomic population
  ZA   - Total nuclear charge
  QA   - Mulliken gross atomic charge
  VA   - Mayer's total valence
  BVA  - Mayer's bonded valence
  FA   - Mayer's free valence

  ATOM       NA         ZA         QA         VA         BVA        FA
  0 N      5.0000     5.0000    -0.0000     3.0000     0.0000     3.0000

  Mayer bond orders larger than 0.100000



Warning: MO coefficients are modified such that the real solid harmonic m components
have the correct order within each shell (0, +1, -1, +2, -2, ...) and all s orbitals
come before all p orbitals etc. (with increasing orbital energy within each block of given angular momentum).

--------------------------
ATOM BASIS FOR ELEMENT N 
--------------------------
 NewGTO N 
 S 14
    1         43.457270000000        -0.003124306566
    2         27.098980000000         0.022091256839
    3         16.753800000000        -0.089205843596
    4         10.474740000000         0.223873272742
    5          6.551140000000        -0.256013671775
    6          2.625780000000        -0.047883889880
    7          1.179670000000         0.165756807881
    8          0.604550000000         0.385034345639
    9          0.281710000000         0.440943667874
   10          0.123200000000         0.145692235466
   11          1.163700000000        -0.005301016809
   12          0.421400000000         0.012464520521
   13          0.152600000000        -0.001370860882
   14          0.068400000000         0.002280150529
 S 14
    1         43.457270000000        -0.001149680151
    2         27.098980000000         0.008129125285
    3         16.753800000000        -0.032825904112
    4         10.474740000000         0.082380730770
    5          6.551140000000        -0.094207732390
    6          2.625780000000        -0.017620280403
    7          1.179670000000         0.060995074562
    8          0.604550000000         0.141684669977
    9          0.281710000000         0.162258143381
   10          0.123200000000         0.053611727198
   11          1.163700000000         0.086469487421
   12          0.421400000000        -0.451984881139
   13          0.152600000000         1.632680235635
   14          0.068400000000        -2.157176031942
 S 14
    1         43.457270000000        -0.000827292257
    2         27.098980000000         0.005849594249
    3         16.753800000000        -0.023621018643
    4         10.474740000000         0.059279914141
    5          6.551140000000        -0.067790443655
    6          2.625780000000        -0.012679284338
    7          1.179670000000         0.043891122951
    8          0.604550000000         0.101954121951
    9          0.281710000000         0.116758478814
   10          0.123200000000         0.038578179090
   11          1.163700000000        -0.345390888587
   12          0.421400000000         2.456069745418
   13          0.152600000000        -4.238110030286
   14          0.068400000000         2.018339034007
 S 14
    1         43.457270000000        -0.011854231649
    2         27.098980000000         0.083818559551
    3         16.753800000000        -0.338464459860
    4         10.474740000000         0.849419088276
    5          6.551140000000        -0.971366063494
    6          2.625780000000        -0.181680866086
    7          1.179670000000         0.628913826563
    8          0.604550000000         1.460895795292
    9          0.281710000000         1.673026725157
   10          0.123200000000         0.552784905061
   11          1.163700000000         2.293915625565
   12          0.421400000000        -6.500140900949
   13          0.152600000000         1.762327441896
   14          0.068400000000        -1.044229094837
 S 14
    1         43.457270000000        -0.036962709756
    2         27.098980000000         0.261354863014
    3         16.753800000000        -1.055366890289
    4         10.474740000000         2.648575812408
    5          6.551140000000        -3.028818984966
    6          2.625780000000        -0.566499569099
    7          1.179670000000         1.961017796886
    8          0.604550000000         4.555222882630
    9          0.281710000000         5.216668872790
   10          0.123200000000         1.723640013764
   11          1.163700000000        -0.581132319261
   12          0.421400000000        -9.150935302799
   13          0.152600000000        -2.196135394238
   14          0.068400000000        -0.405791542179
 P 14
    1         36.960660000000        -0.000906192242
    2         23.086910000000         0.007022989872
    3         14.421730000000        -0.032285103457
    4          9.016140000000         0.069114199648
    5          3.905100000000         0.077107536965
    6          2.022640000000         0.153096367578
    7          0.999510000000         0.269288457086
    8          0.467830000000         0.343494975968
    9          0.210990000000         0.272746823495
   10          0.090700000000         0.081530236268
   11          1.104200000000        -0.001394671122
   12          0.397700000000        -0.000743368207
   13          0.143200000000        -0.000880481931
   14          0.043800000000         0.000332808719
 P 14
    1         36.960660000000        -0.000131673307
    2         23.086910000000         0.001020468132
    3         14.421730000000        -0.004691152887
    4          9.016140000000         0.010042565844
    5          3.905100000000         0.011204029287
    6          2.022640000000         0.022245506129
    7          0.999510000000         0.039128675078
    8          0.467830000000         0.049911174994
    9          0.210990000000         0.039631189359
   10          0.090700000000         0.011846664942
   11          1.104200000000         0.039367468973
   12          0.397700000000        -0.104344523659
   13          0.143200000000         0.455225988416
   14          0.043800000000        -1.245448503431
 P 14
    1         36.960660000000        -0.000654014429
    2         23.086910000000         0.005068611825
    3         14.421730000000        -0.023300710967
    4          9.016140000000         0.049880899153
    5          3.905100000000         0.055649827313
    6          2.022640000000         0.110492265132
    7          0.999510000000         0.194350082032
    8          0.467830000000         0.247906195011
    9          0.210990000000         0.196846044178
   10          0.090700000000         0.058841764991
   11          1.104200000000        -0.202946536690
   12          0.397700000000         0.691640326622
   13          0.143200000000        -2.055990012972
   14          0.043800000000         0.742882433102
 P 14
    1         36.960660000000        -0.000875504491
    2         23.086910000000         0.006785159806
    3         14.421730000000        -0.031191784450
    4          9.016140000000         0.066773681574
    5          3.905100000000         0.074496328490
    6          2.022640000000         0.147911835064
    7          0.999510000000         0.260169137121
    8          0.467830000000         0.331862689066
    9          0.210990000000         0.263510387668
   10          0.090700000000         0.078769255276
   11          1.104200000000         0.987767778499
   12          0.397700000000        -2.614082006061
   13          0.143200000000         1.013874839184
   14          0.043800000000        -0.363738154955
 P 14
    1         36.960660000000        -0.006901518633
    2         23.086910000000         0.053486769406
    3         14.421730000000        -0.245881870149
    4          9.016140000000         0.526370580966
    5          3.905100000000         0.587247472095
    6          2.022640000000         1.165974927824
    7          0.999510000000         2.050888563085
    8          0.467830000000         2.616042014246
    9          0.210990000000         2.077227323355
   10          0.090700000000         0.620930547547
   11          1.104200000000        -4.671502820188
   12          0.397700000000        -2.070785292961
   13          0.143200000000        -2.318730113515
   14          0.043800000000         0.081686565650
 D 4
    1          2.864600000000        -0.008186316072
    2          0.990800000000         0.066314121652
    3          0.342700000000        -0.182384690131
    4          0.112800000000         1.091336804853
 D 4
    1          2.864600000000         0.056379253661
    2          0.990800000000        -0.120044856562
    3          0.342700000000         1.320236383607
    4          0.112800000000        -0.663148905303
 D 4
    1          2.864600000000        -0.058901267828
    2          0.990800000000         1.397923042094
    3          0.342700000000        -1.044699599295
    4          0.112800000000         0.346535003568
 D 4
    1          2.864600000000         1.373263900182
    2          0.990800000000        -1.152466885387
    3          0.342700000000         0.532825123558
    4          0.112800000000        -0.166375978741
 F 3
    1          1.960000000000         0.039254366541
    2          0.674800000000        -0.196561150323
    3          0.247200000000         1.099045154685
 F 3
    1          1.960000000000        -0.113584278995
    2          0.674800000000         1.290554338100
    3          0.247200000000        -0.594236779850
 F 3
    1          1.960000000000         1.232821887215
    2          0.674800000000        -0.755621155254
    3          0.247200000000         0.264597923115
 G 2
    1          1.416400000000         0.166962679977
    2          0.555100000000        -1.083621393678
 G 2
    1          1.416400000000         1.193974032167
    2          0.555100000000        -0.528408176657
 end
-------------------------------------------
RADIAL EXPECTATION VALUES <R**-3> TO <R**3>
-------------------------------------------
   0 :     0.000000     1.164541     0.925009     1.338701     2.156013     4.106471
   1 :     0.000000     0.118129     0.265713     4.395650    20.774666   103.697148
   2 :     0.000000     0.457290     0.484543     3.040582    11.854017    55.291471
   3 :     0.000000     1.822748     1.021451     1.611820     4.086756    14.928440
   4 :     0.000000    14.873123     2.939778     0.594888     0.746855     1.903652
   5 :     2.576089     1.272865     0.950006     1.410554     2.549430     5.687295
   6 :     2.576089     1.272865     0.950006     1.410554     2.549430     5.687295
   7 :     2.576089     1.272865     0.950006     1.410554     2.549430     5.687295
   8 :     0.074782     0.065714     0.198420     5.766324    35.560718   231.755225
   9 :     0.074782     0.065714     0.198420     5.766324    35.560718   231.755225
  10 :     0.074782     0.065714     0.198420     5.766324    35.560718   231.755225
  11 :     0.830938     0.413255     0.444344     3.417192    14.956020    80.003659
  12 :     0.830938     0.413255     0.444344     3.417192    14.956020    80.003659
  13 :     0.830938     0.413255     0.444344     3.417192    14.956020    80.003659
  14 :     3.203893     1.360615     0.901180     1.851457     5.281635    21.821682
  15 :     3.203893     1.360615     0.901180     1.851457     5.281635    21.821682
  16 :     3.203893     1.360615     0.901180     1.851457     5.281635    21.821682
  17 :    17.946766     4.868260     1.817428     0.944800     1.680084     5.353417
  18 :    17.946766     4.868260     1.817428     0.944800     1.680084     5.353417
  19 :    17.946766     4.868260     1.817428     0.944800     1.680084     5.353417
  20 :     0.026245     0.078820     0.268690     3.987544    16.865926   375.987280
  21 :     0.026245     0.078820     0.268690     3.987544    16.865926   375.987280
  22 :     0.026245     0.078820     0.268690     3.987544    16.865926   375.987280
  23 :     0.026245     0.078820     0.268690     3.987544    16.865926   375.987280
  24 :     0.026245     0.078820     0.268690     3.987544    16.865926   375.987280
  25 :     0.182618     0.271522     0.482827     2.449001     7.295614   132.693238
  26 :     0.182618     0.271522     0.482827     2.449001     7.295614   132.693238
  27 :     0.182618     0.271522     0.482827     2.449001     7.295614   132.693238
  28 :     0.182618     0.271522     0.482827     2.449001     7.295614   132.693238
  29 :     0.182618     0.271522     0.482827     2.449001     7.295614   132.693238
  30 :     0.821904     0.759050     0.803854     1.553247     3.242158    46.511598
  31 :     0.821904     0.759050     0.803854     1.553247     3.242158    46.511598
  32 :     0.821904     0.759050     0.803854     1.553247     3.242158    46.511598
  33 :     0.821904     0.759050     0.803854     1.553247     3.242158    46.511598
  34 :     0.821904     0.759050     0.803854     1.553247     3.242158    46.511598
  35 :     4.549451     2.339328     1.399422     0.923479     1.246262    13.373632
  36 :     4.549451     2.339328     1.399422     0.923479     1.246262    13.373632
  37 :     4.549451     2.339328     1.399422     0.923479     1.246262    13.373632
  38 :     4.549451     2.339328     1.399422     0.923479     1.246262    13.373632
  39 :     4.549451     2.339328     1.399422     0.923479     1.246262    13.373632
  40 :     0.046489     0.121782     0.340032     3.080790     9.909790   232.381330
  41 :     0.046489     0.121782     0.340032     3.080790     9.909790   232.381330
  42 :     0.046489     0.121782     0.340032     3.080790     9.909790   232.381330
  43 :     0.046489     0.121782     0.340032     3.080790     9.909790   232.381330
  44 :     0.046489     0.121782     0.340032     3.080790     9.909790   232.381330
  45 :     0.046489     0.121782     0.340032     3.080790     9.909790   232.381330
  46 :     0.046489     0.121782     0.340032     3.080790     9.909790   232.381330
  47 :     0.244513     0.363200     0.578587     1.917888     4.204110    75.325984
  48 :     0.244513     0.363200     0.578587     1.917888     4.204110    75.325984
  49 :     0.244513     0.363200     0.578587     1.917888     4.204110    75.325984
  50 :     0.244513     0.363200     0.578587     1.917888     4.204110    75.325984
  51 :     0.244513     0.363200     0.578587     1.917888     4.204110    75.325984
  52 :     0.244513     0.363200     0.578587     1.917888     4.204110    75.325984
  53 :     0.244513     0.363200     0.578587     1.917888     4.204110    75.325984
  54 :     1.453847     1.161875     1.021282     1.133975     1.594577    20.805395
  55 :     1.453847     1.161875     1.021282     1.133975     1.594577    20.805395
  56 :     1.453847     1.161875     1.021282     1.133975     1.594577    20.805395
  57 :     1.453847     1.161875     1.021282     1.133975     1.594577    20.805395
  58 :     1.453847     1.161875     1.021282     1.133975     1.594577    20.805395
  59 :     1.453847     1.161875     1.021282     1.133975     1.594577    20.805395
  60 :     1.453847     1.161875     1.021282     1.133975     1.594577    20.805395
  61 :     0.108556     0.218698     0.458689     2.262898     5.307516    90.188343
  62 :     0.108556     0.218698     0.458689     2.262898     5.307516    90.188343
  63 :     0.108556     0.218698     0.458689     2.262898     5.307516    90.188343
  64 :     0.108556     0.218698     0.458689     2.262898     5.307516    90.188343
  65 :     0.108556     0.218698     0.458689     2.262898     5.307516    90.188343
  66 :     0.108556     0.218698     0.458689     2.262898     5.307516    90.188343
  67 :     0.108556     0.218698     0.458689     2.262898     5.307516    90.188343
  68 :     0.108556     0.218698     0.458689     2.262898     5.307516    90.188343
  69 :     0.108556     0.218698     0.458689     2.262898     5.307516    90.188343
  70 :     0.592927     0.657524     0.781300     1.398570     2.184873    27.257759
  71 :     0.592927     0.657524     0.781300     1.398570     2.184873    27.257759
  72 :     0.592927     0.657524     0.781300     1.398570     2.184873    27.257759
  73 :     0.592927     0.657524     0.781300     1.398570     2.184873    27.257759
  74 :     0.592927     0.657524     0.781300     1.398570     2.184873    27.257759
  75 :     0.592927     0.657524     0.781300     1.398570     2.184873    27.257759
  76 :     0.592927     0.657524     0.781300     1.398570     2.184873    27.257759
  77 :     0.592927     0.657524     0.781300     1.398570     2.184873    27.257759
  78 :     0.592927     0.657524     0.781300     1.398570     2.184873    27.257759
-------
TIMINGS
-------

Total SCF time: 0 days 0 hours 0 min 1 sec 

Total time                  ....       1.424 sec
Sum of individual times     ....       1.200 sec  ( 84.3%)

Fock matrix formation       ....       1.122 sec  ( 78.8%)
Diagonalization             ....       0.024 sec  (  1.7%)
Density matrix formation    ....       0.028 sec  (  2.0%)
Population analysis         ....       0.003 sec  (  0.2%)
Initial guess               ....       0.001 sec  (  0.1%)
Orbital Transformation      ....       0.000 sec  (  0.0%)
Orbital Orthonormalization  ....       0.000 sec  (  0.0%)
DIIS solution               ....       0.022 sec  (  1.6%)

Maximum memory used throughout the entire SCF-calculation: 228.3 MB

-------------------------   --------------------
FINAL SINGLE POINT ENERGY        -9.638572884074
-------------------------   --------------------


                            ***************************************
                            *     ORCA property calculations      *
                            ***************************************

                                    ---------------------
                                    Active property flags
                                    ---------------------
   (+) Dipole Moment


------------------------------------------------------------------------------
                       ORCA ELECTRIC PROPERTIES CALCULATION
------------------------------------------------------------------------------

Dipole Moment Calculation                       ... on
Quadrupole Moment Calculation                   ... off
Polarizability Calculation                      ... off
GBWName                                         ... mol.gbw
Electron density                                ... mol.scfp
The origin for moment calculation is the CENTER OF MASS  = ( 0.000000,  0.000000  0.000000)

-------------
DIPOLE MOMENT
-------------
                                X             Y             Z
Electronic contribution:      0.00000      -0.00000      -0.00000
Nuclear contribution   :      0.00000       0.00000       0.00000
                        -----------------------------------------
Total Dipole Moment    :      0.00000      -0.00000      -0.00000
                        -----------------------------------------
Magnitude (a.u.)       :      0.00000
Magnitude (Debye)      :      0.00000



--------------------
Rotational spectrum 
--------------------
 
Rotational constants in cm-1:     0.000000     0.000000     0.000000 
Rotational constants in MHz :     0.000000     0.000000     0.000000 

 Dipole components along the rotational axes: 
x,y,z [a.u.] :     0.000000    -0.000000    -0.000000 
x,y,z [Debye]:     0.000000    -0.000000    -0.000000 

 

Timings for individual modules:

Sum of individual times         ...        2.605 sec (=   0.043 min)
GTO integral calculation        ...        0.693 sec (=   0.012 min)  26.6 %
SCF iterations                  ...        1.912 sec (=   0.032 min)  73.4 %
                             ****ORCA TERMINATED NORMALLY****
TOTAL RUN TIME: 0 days 0 hours 0 minutes 3 seconds 333 msec
