
                                 *****************
                                 * O   R   C   A *
                                 *****************

                                            #,                                       
                                            ###                                      
                                            ####                                     
                                            #####                                    
                                            ######                                   
                                           ########,                                 
                                     ,,################,,,,,                         
                               ,,#################################,,                 
                          ,,##########################################,,             
                       ,#########################################, ''#####,          
                    ,#############################################,,   '####,        
                  ,##################################################,,,,####,       
                ,###########''''           ''''###############################       
              ,#####''   ,,,,##########,,,,          '''####'''          '####       
            ,##' ,,,,###########################,,,                        '##       
           ' ,,###''''                  '''############,,,                           
         ,,##''                                '''############,,,,        ,,,,,,###''
      ,#''                                            '''#######################'''  
     '                                                          ''''####''''         
             ,#######,   #######,   ,#######,      ##                                
            ,#'     '#,  ##    ##  ,#'     '#,    #''#        ######   ,####,        
            ##       ##  ##   ,#'  ##            #'  '#       #        #'  '#        
            ##       ##  #######   ##           ,######,      #####,   #    #        
            '#,     ,#'  ##    ##  '#,     ,#' ,#      #,         ##   #,  ,#        
             '#######'   ##     ##  '#######'  #'      '#     #####' # '####'        



                  #######################################################
                  #                        -***-                        #
                  #          Department of theory and spectroscopy      #
                  #    Directorship and core code : Frank Neese         #
                  #        Max Planck Institute fuer Kohlenforschung    #
                  #                Kaiser Wilhelm Platz 1               #
                  #                 D-45470 Muelheim/Ruhr               #
                  #                      Germany                        #
                  #                                                     #
                  #                  All rights reserved                #
                  #                        -***-                        #
                  #######################################################


                         Program Version 5.0.3 -  RELEASE  -


 With contributions from (in alphabetic order):
   Daniel Aravena         : Magnetic Suceptibility
   Michael Atanasov       : Ab Initio Ligand Field Theory (pilot matlab implementation)
   Alexander A. Auer      : GIAO ZORA, VPT2 properties, NMR spectrum
   Ute Becker             : Parallelization
   Giovanni Bistoni       : ED, misc. LED, open-shell LED, HFLD
   Martin Brehm           : Molecular dynamics
   Dmytro Bykov           : SCF Hessian
   Vijay G. Chilkuri      : MRCI spin determinant printing, contributions to CSF-ICE
   Dipayan Datta          : RHF DLPNO-CCSD density
   Achintya Kumar Dutta   : EOM-CC, STEOM-CC
   Dmitry Ganyushin       : Spin-Orbit,Spin-Spin,Magnetic field MRCI
   Miquel Garcia          : C-PCM and meta-GGA Hessian, CC/C-PCM, Gaussian charge scheme
   Yang Guo               : DLPNO-NEVPT2, F12-NEVPT2, CIM, IAO-localization
   Andreas Hansen         : Spin unrestricted coupled pair/coupled cluster methods
   Benjamin Helmich-Paris : MC-RPA, TRAH-SCF, COSX integrals
   Lee Huntington         : MR-EOM, pCC
   Robert Izsak           : Overlap fitted RIJCOSX, COSX-SCS-MP3, EOM
   Marcus Kettner         : VPT2
   Christian Kollmar      : KDIIS, OOCD, Brueckner-CCSD(T), CCSD density, CASPT2, CASPT2-K
   Simone Kossmann        : Meta GGA functionals, TD-DFT gradient, OOMP2, MP2 Hessian
   Martin Krupicka        : Initial AUTO-CI
   Lucas Lang             : DCDCAS
   Marvin Lechner         : AUTO-CI (C++ implementation), FIC-MRCC
   Dagmar Lenk            : GEPOL surface, SMD
   Dimitrios Liakos       : Extrapolation schemes; Compound Job, initial MDCI parallelization
   Dimitrios Manganas     : Further ROCIS development; embedding schemes
   Dimitrios Pantazis     : SARC Basis sets
   Anastasios Papadopoulos: AUTO-CI, single reference methods and gradients
   Taras Petrenko         : DFT Hessian,TD-DFT gradient, ASA, ECA, R-Raman, ABS, FL, XAS/XES, NRVS
   Peter Pinski           : DLPNO-MP2, DLPNO-MP2 Gradient
   Christoph Reimann      : Effective Core Potentials
   Marius Retegan         : Local ZFS, SOC
   Christoph Riplinger    : Optimizer, TS searches, QM/MM, DLPNO-CCSD(T), (RO)-DLPNO pert. Triples
   Tobias Risthaus        : Range-separated hybrids, TD-DFT gradient, RPA, STAB
   Michael Roemelt        : Original ROCIS implementation
   Masaaki Saitow         : Open-shell DLPNO-CCSD energy and density
   Barbara Sandhoefer     : DKH picture change effects
   Avijit Sen             : IP-ROCIS
   Kantharuban Sivalingam : CASSCF convergence, NEVPT2, FIC-MRCI
   Bernardo de Souza      : ESD, SOC TD-DFT
   Georgi Stoychev        : AutoAux, RI-MP2 NMR, DLPNO-MP2 response
   Willem Van den Heuvel  : Paramagnetic NMR
   Boris Wezisla          : Elementary symmetry handling
   Frank Wennmohs         : Technical directorship


 We gratefully acknowledge several colleagues who have allowed us to
 interface, adapt or use parts of their codes:
   Stefan Grimme, W. Hujo, H. Kruse, P. Pracht,  : VdW corrections, initial TS optimization,
                  C. Bannwarth, S. Ehlert          DFT functionals, gCP, sTDA/sTD-DF
   Ed Valeev, F. Pavosevic, A. Kumar             : LibInt (2-el integral package), F12 methods
   Garnet Chan, S. Sharma, J. Yang, R. Olivares  : DMRG
   Ulf Ekstrom                                   : XCFun DFT Library
   Mihaly Kallay                                 : mrcc  (arbitrary order and MRCC methods)
   Jiri Pittner, Ondrej Demel                    : Mk-CCSD
   Frank Weinhold                                : gennbo (NPA and NBO analysis)
   Christopher J. Cramer and Donald G. Truhlar   : smd solvation model
   Lars Goerigk                                  : TD-DFT with DH, B97 family of functionals
   V. Asgeirsson, H. Jonsson                     : NEB implementation
   FAccTs GmbH                                   : IRC, NEB, NEB-TS, DLPNO-Multilevel, CI-OPT
                                                   MM, QMMM, 2- and 3-layer-ONIOM, Crystal-QMMM,
                                                   LR-CPCM, SF, NACMEs, symmetry and pop. for TD-DFT,
                                                   nearIR, NL-DFT gradient (VV10), updates on ESD,
                                                   ML-optimized integration grids
   S Lehtola, MJT Oliveira, MAL Marques          : LibXC Library
   Liviu Ungur et al                             : ANISO software


 Your calculation uses the libint2 library for the computation of 2-el integrals
 For citations please refer to: http://libint.valeyev.net

 Your ORCA version has been built with support for libXC version: 5.1.0
 For citations please refer to: https://tddft.org/programs/libxc/

 This ORCA versions uses:
   CBLAS   interface :  Fast vector & matrix operations
   LAPACKE interface :  Fast linear algebra routines
   SCALAPACK package :  Parallel linear algebra routines
   Shared memory     :  Shared parallel matrices
   BLAS/LAPACK       :  OpenBLAS 0.3.15  USE64BITINT DYNAMIC_ARCH NO_AFFINITY Haswell SINGLE_THREADED
        Core in use  :  Haswell
   Copyright (c) 2011-2014, The OpenBLAS Project


Reading of a custom orbital basis requested
Basis file: ../../../../basis/aug-cc-pVQZ-CDF.bas
READING GTO-BASIS: HYDROGEN
READING GTO-BASIS: BORON
READING GTO-BASIS: CARBON
READING GTO-BASIS: NITROGEN
READING GTO-BASIS: OXYGEN
READING GTO-BASIS: FLUORINE
READING GTO-BASIS: NEON
Basis read successfully!



***************************************
The coordinates will be read from file: ../../../../../chem_database/N.xyz
***************************************


================================================================================

----- Orbital basis set information -----
Basis read from file: ../../../../basis/aug-cc-pVQZ-CDF.bas

================================================================================
                                        WARNINGS
                       Please study these warnings very carefully!
================================================================================


WARNING: your system is open-shell and RHF/RKS was chosen
  ===> : WILL SWITCH to UHF/UKS


INFO   : the flag for use of the SHARK integral package has been found!

================================================================================
                                       INPUT FILE
================================================================================
NAME = mol.inp
|  1> # ================================================================
|  2> # Orca input file
|  3> # ================================================================
|  4> ! HF cc-pVDZ VeryTightSCF UseSym
|  5> ! PAL4
|  6> 
|  7> %scf
|  8>   Guess = HCore
|  9> end
| 10> 
| 11> %basis
| 12> GTOName = "../../../../basis/aug-cc-pVQZ-CDF.bas";
| 13> newecp N
| 14>  N_core 2
| 15>  lmax d
| 16>  d 8
| 17>   1           13.18602441           5.00000000    1
| 18>   2           22.25555763      -13918.57794375    2
| 19>   3           21.78350954       13903.20724194    2
| 20>   4           15.60063518         -79.02021620    3
| 21>   5           11.36971885         144.95033825    3
| 22>   6           17.52955043       28259.76854431    4
| 23>   7           20.49314072      -14261.17038436    4
| 24>   8           16.82109005      -20903.66399842    4
| 25>  s 8
| 26>   1            9.63206092       -3329.42158578    2
| 27>   2           12.69772672        3344.90544668    2
| 28>   3           12.16735131        1062.66455633    3
| 29>   4           16.20831202        3065.60324819    3
| 30>   5           15.23511053       -4128.26780452    3
| 31>   6           10.11153126       -2259.59421502    4
| 32>   7           14.82170225        1461.74765015    4
| 33>   8           10.62976302       11201.35028349    4
| 34>  p 8
| 35>   1           12.33817511       32795.80200146    2
| 36>   2           14.87589395      -32799.16502498    2
| 37>   3           11.59164752       -2330.76350229    3
| 38>   4           14.54435394       -5324.40115625    3
| 39>   5           13.61733588        7655.16465854    3
| 40>   6           13.50806484      -81340.75461562    4
| 41>   7           23.06725161       56201.11906152    4
| 42>   8           22.86930101      -58136.91681549    4
| 43> end
| 44> 
| 45> end
| 46> 
| 47> * xyzfile 0 4 ../../../../../chem_database/N.xyz
| 48> 
| 49>                          ****END OF INPUT****
================================================================================

------------------------------------------------------------------------------
                            SYMMETRY HANDLING SETUP
------------------------------------------------------------------------------

------------------
SYMMETRY DETECTION
------------------
The point group will now be determined using a tolerance of 1.0000e-04.
The Z matrix contains a single non-dummy atom.
No further testing needed for point group Kh.
This point group has been found:    Kh
Largest non-degenerate subgroup:    D2h


Symmetry-perfected Cartesians (point groups Kh and D2h):

Atom          Symmetry-perfected Cartesians (x, y, z; au)
  0       0.000000000000    0.000000000000    0.000000000000


-----------------------------------------------
SYMMETRY-PERFECTED CARTESIAN COORDINATES (A.U.)
-----------------------------------------------
Warning (ORCA_SYM): Coordinates were not cleaned so far!

------------------
SYMMETRY REDUCTION
------------------
ORCA supports only abelian point groups.
It is now checked, if the determined point group is supported:
Point Group ( D2h   ) is          ... supported

(Re)building abelian point group:
Creating Character Table          ... done
Making direct product table       ... done
Constructing symmetry operations  ... done
Creating atom transfer table      ... done
Creating asymmetric unit          ... done

----------------------
ASYMMETRIC UNIT IN D2h
----------------------
  #  AT     MASS              COORDS (A.U.)             BAS
   0 N   14.0070   0.00000000   0.00000000   0.00000000   0

----------------------
SYMMETRY ADAPTED BASIS
----------------------
The coefficients for the symmetry adapted linear combinations (SALCS)
of basis functions will now be computed:
Number of basis functions         ...    79
Preparing memory                  ... done
Constructing Gamma(red)           ... done
Reducing Gamma(red)               ... done
Constructing SALCs                ... done
Checking SALC integrity           ... nothing suspicious
Normalizing SALCs                 ... done

Storing the symmetry object:
Symmetry file                     ... mol.sym.tmp
Writing symmetry information      ... done

                       ****************************
                       * Single Point Calculation *
                       ****************************

---------------------------------
CARTESIAN COORDINATES (ANGSTROEM)
---------------------------------
  N      0.000000    0.000000    0.000000

----------------------------
CARTESIAN COORDINATES (A.U.)
----------------------------
  NO LB      ZA    FRAG     MASS         X           Y           Z
   0 N     5.0000*   0    14.007    0.000000    0.000000    0.000000
* core charge reduced due to ECP

--------------------------------
INTERNAL COORDINATES (ANGSTROEM)
--------------------------------
 N      0   0   0     0.000000000000     0.00000000     0.00000000

---------------------------
INTERNAL COORDINATES (A.U.)
---------------------------
 N      0   0   0     0.000000000000     0.00000000     0.00000000

---------------------
BASIS SET INFORMATION
---------------------
There are 1 groups of distinct atoms

 Group   1 Type N   : 14s14p4d3f2g contracted to 5s5p4d3f2g pattern {101111/101111/1111/111/11}

Atom   0N    basis set group =>   1
-------------------------
ECP PARAMETER INFORMATION
-------------------------

 Group 1, Type N  ECP (replacing 2 core electrons, lmax=2)

Atom   0N    ECP group =>   1



           ************************************************************
           *        Program running with 4 parallel MPI-processes     *
           *              working on a common directory               *
           ************************************************************
------------------------------------------------------------------------------
                           ORCA GTO INTEGRAL CALCULATION
------------------------------------------------------------------------------
------------------------------------------------------------------------------
                   ___                                                        
                  /   \      - P O W E R E D   B Y -                         
                 /     \                                                     
                 |  |  |   _    _      __       _____    __    __             
                 |  |  |  | |  | |    /  \     |  _  \  |  |  /  |          
                  \  \/   | |  | |   /    \    | | | |  |  | /  /          
                 / \  \   | |__| |  /  /\  \   | |_| |  |  |/  /          
                |  |  |   |  __  | /  /__\  \  |    /   |      \           
                |  |  |   | |  | | |   __   |  |    \   |  |\   \          
                \     /   | |  | | |  |  |  |  | |\  \  |  | \   \       
                 \___/    |_|  |_| |__|  |__|  |_| \__\ |__|  \__/        
                                                                              
                      - O R C A' S   B I G   F R I E N D -                    
                                      &                                       
                       - I N T E G R A L  F E E D E R -                       
                                                                              
 v1 FN, 2020, v2 2021                                                         
------------------------------------------------------------------------------


Reading SHARK input file mol.SHARKINP.tmp ... ok
----------------------
SHARK INTEGRAL PACKAGE
----------------------

Number of atoms                             ...      1
Number of basis functions                   ...     79
Number of shells                            ...     19
Maximum angular momentum                    ...      4
Integral batch strategy                     ... SHARK/LIBINT Hybrid
RI-J (if used) integral strategy            ... SPLIT-RIJ (Revised 2003 algorithm where possible)
Printlevel                                  ...      1
Contraction scheme used                     ... SEGMENTED contraction
Coulomb Range Separation                    ... NOT USED
Exchange Range Separation                   ... NOT USED
Finite Nucleus Model                        ... NOT USED
Auxiliary Coulomb fitting basis             ... NOT available
Auxiliary J/K fitting basis                 ... NOT available
Auxiliary Correlation fitting basis         ... NOT available
Auxiliary 'external' fitting basis          ... NOT available
Integral threshold                          ...     1.000000e-12
Primitive cut-off                           ...     1.000000e-14
Primitive pair pre-selection threshold      ...     1.000000e-14

Calculating pre-screening integrals         ... done (  0.0 sec) Dimension = 19
Organizing shell pair data                  ... done (  0.0 sec)
Shell pair information
Total number of shell pairs                 ...       190
Shell pairs after pre-screening             ...       190
Total number of primitive shell pairs       ...       793
Primitive shell pairs kept                  ...       793
          la=0 lb=0:     15 shell pairs
          la=1 lb=0:     25 shell pairs
          la=1 lb=1:     15 shell pairs
          la=2 lb=0:     20 shell pairs
          la=2 lb=1:     20 shell pairs
          la=2 lb=2:     10 shell pairs
          la=3 lb=0:     15 shell pairs
          la=3 lb=1:     15 shell pairs
          la=3 lb=2:     12 shell pairs
          la=3 lb=3:      6 shell pairs
          la=4 lb=0:     10 shell pairs
          la=4 lb=1:     10 shell pairs
          la=4 lb=2:      8 shell pairs
          la=4 lb=3:      6 shell pairs
          la=4 lb=4:      3 shell pairs

Calculating one electron integrals          ... done (  0.0 sec)
Calculating ECP integrals                   ... done (  0.0 sec)
Calculating Nuclear repulsion               ... done (  0.0 sec) ENN=      0.000000000000 Eh

SHARK setup successfully completed in   0.2 seconds

Maximum memory used throughout the entire GTOINT-calculation: 33.5 MB


           ************************************************************
           *        Program running with 4 parallel MPI-processes     *
           *              working on a common directory               *
           ************************************************************
-------------------------------------------------------------------------------
                                 ORCA SCF
-------------------------------------------------------------------------------

------------
SCF SETTINGS
------------
Hamiltonian:
 Ab initio Hamiltonian  Method          .... Hartree-Fock(GTOs)


General Settings:
 Integral files         IntName         .... mol
 Hartree-Fock type      HFTyp           .... UHF
 Total Charge           Charge          ....    0
 Multiplicity           Mult            ....    4
 Number of Electrons    NEL             ....    5
 Basis Dimension        Dim             ....   79
 Nuclear Repulsion      ENuc            ....      0.0000000000 Eh

 Symmetry handling      UseSym         .... ON
 Point group                           .... D2h
 Used point group                      .... D2h
 Number of irreps                      .... 8
   Irrep   Ag has   19 symmetry adapted basis functions (ofs=   0)
   Irrep  B1g has    8 symmetry adapted basis functions (ofs=  19)
   Irrep  B2g has    8 symmetry adapted basis functions (ofs=  27)
   Irrep  B3g has    8 symmetry adapted basis functions (ofs=  35)
   Irrep   Au has    3 symmetry adapted basis functions (ofs=  43)
   Irrep  B1u has   11 symmetry adapted basis functions (ofs=  46)
   Irrep  B2u has   11 symmetry adapted basis functions (ofs=  57)
   Irrep  B3u has   11 symmetry adapted basis functions (ofs=  68)

Convergence Acceleration:
 DIIS                   CNVDIIS         .... on
   Start iteration      DIISMaxIt       ....    12
   Startup error        DIISStart       ....  0.200000
   # of expansion vecs  DIISMaxEq       ....     5
   Bias factor          DIISBfac        ....   1.050
   Max. coefficient     DIISMaxC        ....  10.000
 Trust-Rad. Augm. Hess. CNVTRAH         .... auto
   Auto Start mean grad. ratio tolernc. ....  1.125000
   Auto Start start iteration           ....    20
   Auto Start num. interpolation iter.  ....    10
   Max. Number of Micro iterations      ....    16
   Max. Number of Macro iterations      .... Maxiter - #DIIS iter
   Number of Davidson start vectors     ....     2
   Converg. threshold I  (grad. norm)   ....   2.000e-06
   Converg. threshold II (energy diff.) ....   1.000e-09
   Grad. Scal. Fac. for Micro threshold ....   0.100
   Minimum threshold for Micro iter.    ....   0.010
   NR start threshold (gradient norm)   ....   0.001
   Initial trust radius                 ....   0.400
   Minimum AH scaling param. (alpha)    ....   1.000
   Maximum AH scaling param. (alpha)    .... 1000.000
   Orbital update algorithm             .... Taylor
   White noise on init. David. guess    .... on
   Maximum white noise                  ....   0.010
   Quad. conv. algorithm                .... NR
 SOSCF                  CNVSOSCF        .... off
 Level Shifting         CNVShift        .... on
   Level shift para.    LevelShift      ....    0.2500
   Turn off err/grad.   ShiftErr        ....    0.0010
 Zerner damping         CNVZerner       .... off
 Static damping         CNVDamp         .... on
   Fraction old density DampFac         ....    0.7000
   Max. Damping (<1)    DampMax         ....    0.9800
   Min. Damping (>=0)   DampMin         ....    0.0000
   Turn off err/grad.   DampErr         ....    0.1000
 Fernandez-Rico         CNVRico         .... off

SCF Procedure:
 Maximum # iterations   MaxIter         ....   125
 SCF integral mode      SCFMode         .... Direct
   Integral package                     .... SHARK and LIBINT hybrid scheme
 Reset frequency        DirectResetFreq ....    20
 Integral Threshold     Thresh          ....  1.000e-12 Eh
 Primitive CutOff       TCut            ....  1.000e-14 Eh

Convergence Tolerance:
 Convergence Check Mode ConvCheckMode   .... Total+1el-Energy
 Convergence forced     ConvForced      .... 0
 Energy Change          TolE            ....  1.000e-09 Eh
 1-El. energy change                    ....  1.000e-06 Eh
 DIIS Error             TolErr          ....  1.000e-08


Diagonalization of the overlap matrix:
Smallest eigenvalue                        ... 3.619e-03
Time for diagonalization                   ...    0.001 sec
Threshold for overlap eigenvalues          ... 1.000e-08
Number of eigenvalues below threshold      ... 0
Time for construction of square roots      ...    0.001 sec
Producing symmetrization matrix            ... done (   0.000 sec)
Total time needed                          ...    0.003 sec

--------------------
INITIAL GUESS: HCORE
--------------------
Diagonalizing the Hamiltonian                      ... done
Diagonalizing the Hamiltonian                      ... done
Back transforming the eigenvectors                 ... done
                      -----------------
                      INTIAL GUESS DONE 
                      -----------------
The symmetry of the initial guess is 4-Au
Irrep occupations for operator 0
    Ag -    1
   B1g -    0
   B2g -    0
   B3g -    0
    Au -    0
   B1u -    1
   B2u -    1
   B3u -    1
Irrep occupations for operator 1
    Ag -    1
   B1g -    0
   B2g -    0
   B3g -    0
    Au -    0
   B1u -    0
   B2u -    0
   B3u -    0
--------------
SCF ITERATIONS
--------------
ITER       Energy         Delta-E        Max-DP      RMS-DP      [F,P]     Damp
               ***  Starting incremental Fock matrix formation  ***
  0     -8.6232090328   0.000000000000 0.49121028  0.01025259  0.5326535 0.7000
  1     -8.9361828968  -0.312973863994 0.36978871  0.00767903  0.3762157 0.7000
  2     -9.1541566539  -0.217973757100 0.25431186  0.00528464  0.2477776 0.7000
                               ***Turning on DIIS***
  3     -9.3030451593  -0.148888505429 0.17123774  0.00357330  0.1584941 0.7000
  4     -9.5608673778  -0.257822218530 0.36207350  0.00766315  0.0997562 0.0000
  5     -9.6292460219  -0.068378644070 0.02342707  0.00028986  0.0171614 0.0000
  6     -9.6413607391  -0.012114717172 0.01299171  0.00016694  0.0061364 0.0000
  7     -9.6425638957  -0.001203156663 0.00361630  0.00004593  0.0017855 0.0000
  8     -9.6430652637  -0.000501367931 0.00102944  0.00001580  0.0005194 0.0000
  9     -9.6432616180  -0.000196354349 0.00020459  0.00000284  0.0000678 0.0000
 10     -9.6432659380  -0.000004319988 0.00001292  0.00000022  0.0000042 0.0000
 11     -9.6432641676   0.000001770409 0.00000268  0.00000005  0.0000006 0.0000
 12     -9.6432637783   0.000000389310 0.00000036  0.00000001  0.0000001 0.0000
                            ***DIIS convergence achieved***

               *****************************************************
               *                     SUCCESS                       *
               *           SCF CONVERGED AFTER  13 CYCLES          *
               *****************************************************


----------------
TOTAL SCF ENERGY
----------------

Total Energy       :           -9.64326376 Eh            -262.40655 eV

Components:
Nuclear Repulsion  :            0.00000000 Eh               0.00000 eV
Electronic Energy  :           -9.64326376 Eh            -262.40655 eV
One Electron Energy:          -15.68188091 Eh            -426.72567 eV
Two Electron Energy:            6.03861716 Eh             164.31913 eV

Virial components:
Potential Energy   :          -16.42901457 Eh            -447.05621 eV
Kinetic Energy     :            6.78575081 Eh             184.64967 eV
Virial Ratio       :            2.42110490


---------------
SCF CONVERGENCE
---------------

  Last Energy change         ...    1.9615e-08  Tolerance :   1.0000e-09
  Last MAX-Density change    ...    3.2760e-08  Tolerance :   1.0000e-08
  Last RMS-Density change    ...    4.0885e-10  Tolerance :   1.0000e-09
  Last DIIS Error            ...    5.2065e-09  Tolerance :   1.0000e-08

             **** THE GBW FILE WAS UPDATED (mol.gbw) ****
             **** DENSITY mol.scfp WAS UPDATED ****
             **** ENERGY FILE WAS UPDATED (mol.en.tmp) ****
----------------------
UHF SPIN CONTAMINATION
----------------------

Expectation value of <S**2>     :     3.760451
Ideal value S*(S+1) for S=1.5   :     3.750000
Deviation                       :     0.010451

             **** THE GBW FILE WAS UPDATED (mol.gbw) ****
             **** DENSITY mol.scfp WAS UPDATED ****
----------------
ORBITAL ENERGIES
----------------
                 SPIN UP ORBITALS
  NO   OCC          E(Eh)            E(eV)    Irrep 
   0   1.0000      -1.175147       -31.9774    1-Ag
   1   1.0000      -0.571703       -15.5568    1-B3u
   2   1.0000      -0.571703       -15.5568    1-B2u
   3   1.0000      -0.571703       -15.5568    1-B1u
   4   0.0000       0.111306         3.0288    2-B1u
   5   0.0000       0.111306         3.0288    2-B3u
   6   0.0000       0.111306         3.0288    2-B2u
   7   0.0000       0.126547         3.4435    2-Ag
   8   0.0000       0.345250         9.3947    3-Ag
   9   0.0000       0.345250         9.3947    4-Ag
  10   0.0000       0.345250         9.3947    1-B1g
  11   0.0000       0.345250         9.3947    1-B3g
  12   0.0000       0.345250         9.3947    1-B2g
  13   0.0000       0.564309        15.3556    3-B1u
  14   0.0000       0.564309        15.3556    3-B3u
  15   0.0000       0.564309        15.3556    3-B2u
  16   0.0000       0.717098        19.5132    5-Ag
  17   0.0000       1.012136        27.5416    4-B1u
  18   0.0000       1.012136        27.5416    1-Au
  19   0.0000       1.012136        27.5416    4-B2u
  20   0.0000       1.012136        27.5416    4-B3u
  21   0.0000       1.012136        27.5416    5-B2u
  22   0.0000       1.012136        27.5416    5-B1u
  23   0.0000       1.012136        27.5416    5-B3u
  24   0.0000       1.120068        30.4786    6-Ag
  25   0.0000       1.120068        30.4786    7-Ag
  26   0.0000       1.120068        30.4786    2-B2g
  27   0.0000       1.120068        30.4786    2-B3g
  28   0.0000       1.120068        30.4786    2-B1g
  29   0.0000       2.084335        56.7176    6-B2u
  30   0.0000       2.084335        56.7176    6-B1u
  31   0.0000       2.084335        56.7176    6-B3u
  32   0.0000       2.809610        76.4534    8-Ag
  33   0.0000       2.809610        76.4534    3-B3g
  34   0.0000       2.809610        76.4534    9-Ag
  35   0.0000       2.809610        76.4534    3-B2g
  36   0.0000       2.809610        76.4534    3-B1g
  37   0.0000       2.809610        76.4534    4-B3g
  38   0.0000       2.809610        76.4534   10-Ag
  39   0.0000       2.809610        76.4534    4-B1g
  40   0.0000       2.809610        76.4534    4-B2g
  41   0.0000       3.020539        82.1930   11-Ag
  42   0.0000       3.101337        84.3917    7-B2u
  43   0.0000       3.101337        84.3917    2-Au
  44   0.0000       3.101337        84.3917    7-B1u
  45   0.0000       3.101337        84.3917    7-B3u
  46   0.0000       3.101337        84.3917    8-B1u
  47   0.0000       3.101337        84.3917    8-B2u
  48   0.0000       3.101337        84.3917    8-B3u
  49   0.0000       3.256924        88.6254   12-Ag
  50   0.0000       3.256924        88.6254    5-B1g
  51   0.0000       3.256924        88.6254   13-Ag
  52   0.0000       3.256924        88.6254    5-B2g
  53   0.0000       3.256924        88.6254    5-B3g
  54   0.0000       7.669622       208.7010    9-B1u
  55   0.0000       7.669622       208.7010    9-B2u
  56   0.0000       7.669622       208.7010    9-B3u
  57   0.0000       8.134265       221.3446   14-Ag
  58   0.0000       8.134265       221.3446    6-B3g
  59   0.0000       8.134265       221.3446    6-B1g
  60   0.0000       8.134265       221.3446    6-B2g
  61   0.0000       8.134265       221.3446    7-B1g
  62   0.0000       8.134265       221.3446   15-Ag
  63   0.0000       8.134265       221.3446    7-B3g
  64   0.0000       8.134265       221.3446    7-B2g
  65   0.0000       8.134265       221.3446   16-Ag
  66   0.0000       8.857761       241.0319   10-B3u
  67   0.0000       8.857761       241.0319   10-B2u
  68   0.0000       8.857761       241.0319   10-B1u
  69   0.0000       8.857761       241.0319   11-B3u
  70   0.0000       8.857761       241.0319    3-Au
  71   0.0000       8.857761       241.0319   11-B2u
  72   0.0000       8.857761       241.0319   11-B1u
  73   0.0000       9.657261       262.7874   17-Ag
  74   0.0000       9.657261       262.7874    8-B2g
  75   0.0000       9.657261       262.7874   18-Ag
  76   0.0000       9.657261       262.7874    8-B3g
  77   0.0000       9.657261       262.7874    8-B1g
  78   0.0000      12.840497       349.4077   19-Ag

                 SPIN DOWN ORBITALS
  NO   OCC          E(Eh)            E(eV)    Irrep 
   0   1.0000      -0.714390       -19.4395    1-Ag
   1   0.0000       0.071616         1.9488    1-B2u
   2   0.0000       0.071616         1.9488    1-B1u
   3   0.0000       0.071616         1.9488    1-B3u
   4   0.0000       0.146269         3.9802    2-Ag
   5   0.0000       0.200205         5.4479    2-B1u
   6   0.0000       0.200205         5.4479    2-B3u
   7   0.0000       0.200205         5.4479    2-B2u
   8   0.0000       0.360004         9.7962    3-Ag
   9   0.0000       0.360004         9.7962    1-B3g
  10   0.0000       0.360004         9.7962    4-Ag
  11   0.0000       0.360004         9.7962    1-B2g
  12   0.0000       0.360004         9.7962    1-B1g
  13   0.0000       0.692989        18.8572    3-B1u
  14   0.0000       0.692989        18.8572    3-B2u
  15   0.0000       0.692989        18.8572    3-B3u
  16   0.0000       0.793653        21.5964    5-Ag
  17   0.0000       1.027926        27.9713    4-B2u
  18   0.0000       1.027926        27.9713    4-B1u
  19   0.0000       1.027926        27.9713    5-B1u
  20   0.0000       1.027926        27.9713    1-Au
  21   0.0000       1.027926        27.9713    5-B2u
  22   0.0000       1.027926        27.9713    4-B3u
  23   0.0000       1.027926        27.9713    5-B3u
  24   0.0000       1.219799        33.1924    2-B2g
  25   0.0000       1.219799        33.1924    2-B1g
  26   0.0000       1.219799        33.1924    6-Ag
  27   0.0000       1.219799        33.1924    7-Ag
  28   0.0000       1.219799        33.1924    2-B3g
  29   0.0000       2.232696        60.7548    6-B1u
  30   0.0000       2.232696        60.7548    6-B2u
  31   0.0000       2.232696        60.7548    6-B3u
  32   0.0000       2.835296        77.1523    8-Ag
  33   0.0000       2.835296        77.1523    3-B3g
  34   0.0000       2.835296        77.1523    3-B2g
  35   0.0000       2.835296        77.1523    3-B1g
  36   0.0000       2.835296        77.1523    9-Ag
  37   0.0000       2.835296        77.1523   10-Ag
  38   0.0000       2.835296        77.1523    4-B3g
  39   0.0000       2.835296        77.1523    4-B2g
  40   0.0000       2.835296        77.1523    4-B1g
  41   0.0000       3.158506        85.9473   11-Ag
  42   0.0000       3.170456        86.2725    7-B2u
  43   0.0000       3.170456        86.2725    7-B1u
  44   0.0000       3.170456        86.2725    7-B3u
  45   0.0000       3.170456        86.2725    8-B2u
  46   0.0000       3.170456        86.2725    8-B1u
  47   0.0000       3.170456        86.2725    8-B3u
  48   0.0000       3.170456        86.2725    2-Au
  49   0.0000       3.418758        93.0291    5-B1g
  50   0.0000       3.418758        93.0291   12-Ag
  51   0.0000       3.418758        93.0291    5-B2g
  52   0.0000       3.418758        93.0291    5-B3g
  53   0.0000       3.418758        93.0291   13-Ag
  54   0.0000       7.782691       211.7778    9-B1u
  55   0.0000       7.782691       211.7778    9-B2u
  56   0.0000       7.782691       211.7778    9-B3u
  57   0.0000       8.198129       223.0824    6-B3g
  58   0.0000       8.198129       223.0824   14-Ag
  59   0.0000       8.198129       223.0824    6-B1g
  60   0.0000       8.198129       223.0824    6-B2g
  61   0.0000       8.198129       223.0824    7-B3g
  62   0.0000       8.198129       223.0824    7-B1g
  63   0.0000       8.198129       223.0824    7-B2g
  64   0.0000       8.198129       223.0824   15-Ag
  65   0.0000       8.198129       223.0824   16-Ag
  66   0.0000       8.960887       243.8381   10-B2u
  67   0.0000       8.960887       243.8381   10-B3u
  68   0.0000       8.960887       243.8381   11-B3u
  69   0.0000       8.960887       243.8381   10-B1u
  70   0.0000       8.960887       243.8381    3-Au
  71   0.0000       8.960887       243.8381   11-B2u
  72   0.0000       8.960887       243.8381   11-B1u
  73   0.0000       9.783871       266.2327   17-Ag
  74   0.0000       9.783871       266.2327    8-B2g
  75   0.0000       9.783871       266.2327    8-B3g
  76   0.0000       9.783871       266.2327    8-B1g
  77   0.0000       9.783871       266.2327   18-Ag
  78   0.0000      12.930950       351.8690   19-Ag

                    ********************************
                    * MULLIKEN POPULATION ANALYSIS *
                    ********************************

--------------------------------------------
MULLIKEN ATOMIC CHARGES AND SPIN POPULATIONS
--------------------------------------------
   0 N :   -0.000000    3.000000
Sum of atomic charges         :   -0.0000000
Sum of atomic spin populations:    3.0000000

-----------------------------------------------------
MULLIKEN REDUCED ORBITAL CHARGES AND SPIN POPULATIONS
-----------------------------------------------------
CHARGE
  0 N s       :     2.000000  s :     2.000000
      pz      :     1.000000  p :     3.000000
      px      :     1.000000
      py      :     1.000000
      dz2     :     0.000000  d :     0.000000
      dxz     :     0.000000
      dyz     :     0.000000
      dx2y2   :     0.000000
      dxy     :     0.000000
      f0      :     0.000000  f :     0.000000
      f+1     :     0.000000
      f-1     :     0.000000
      f+2     :     0.000000
      f-2     :     0.000000
      f+3     :     0.000000
      f-3     :     0.000000
      g0      :     0.000000  g :     0.000000
      g+1     :     0.000000
      g-1     :     0.000000
      g+2     :     0.000000
      g-2     :     0.000000
      g+3     :     0.000000
      g-3     :     0.000000
      g+4     :     0.000000
      g-4     :     0.000000

SPIN
  0 N s       :     0.000000  s :     0.000000
      pz      :     1.000000  p :     3.000000
      px      :     1.000000
      py      :     1.000000
      dz2     :     0.000000  d :     0.000000
      dxz     :     0.000000
      dyz     :     0.000000
      dx2y2   :     0.000000
      dxy     :    -0.000000
      f0      :     0.000000  f :     0.000000
      f+1     :     0.000000
      f-1     :     0.000000
      f+2     :     0.000000
      f-2     :     0.000000
      f+3     :     0.000000
      f-3     :     0.000000
      g0      :    -0.000000  g :     0.000000
      g+1     :     0.000000
      g-1     :     0.000000
      g+2     :     0.000000
      g-2     :     0.000000
      g+3     :     0.000000
      g-3     :     0.000000
      g+4     :     0.000000
      g-4     :     0.000000


                     *******************************
                     * LOEWDIN POPULATION ANALYSIS *
                     *******************************

-------------------------------------------
LOEWDIN ATOMIC CHARGES AND SPIN POPULATIONS
-------------------------------------------
   0 N :   -0.000000    3.000000

----------------------------------------------------
LOEWDIN REDUCED ORBITAL CHARGES AND SPIN POPULATIONS
----------------------------------------------------
CHARGE
  0 N s       :     2.000000  s :     2.000000
      pz      :     1.000000  p :     3.000000
      px      :     1.000000
      py      :     1.000000
      dz2     :     0.000000  d :     0.000000
      dxz     :     0.000000
      dyz     :     0.000000
      dx2y2   :     0.000000
      dxy     :     0.000000
      f0      :     0.000000  f :     0.000000
      f+1     :     0.000000
      f-1     :     0.000000
      f+2     :     0.000000
      f-2     :     0.000000
      f+3     :     0.000000
      f-3     :     0.000000
      g0      :     0.000000  g :     0.000000
      g+1     :     0.000000
      g-1     :     0.000000
      g+2     :     0.000000
      g-2     :     0.000000
      g+3     :     0.000000
      g-3     :     0.000000
      g+4     :     0.000000
      g-4     :     0.000000

SPIN
  0 N s       :     0.000000  s :     0.000000
      pz      :     1.000000  p :     3.000000
      px      :     1.000000
      py      :     1.000000
      dz2     :     0.000000  d :     0.000000
      dxz     :     0.000000
      dyz     :     0.000000
      dx2y2   :     0.000000
      dxy     :    -0.000000
      f0      :     0.000000  f :     0.000000
      f+1     :     0.000000
      f-1     :     0.000000
      f+2     :     0.000000
      f-2     :     0.000000
      f+3     :     0.000000
      f-3     :     0.000000
      g0      :    -0.000000  g :     0.000000
      g+1     :     0.000000
      g-1     :     0.000000
      g+2     :     0.000000
      g-2     :     0.000000
      g+3     :     0.000000
      g-3     :     0.000000
      g+4     :     0.000000
      g-4     :    -0.000000


                      *****************************
                      * MAYER POPULATION ANALYSIS *
                      *****************************

  NA   - Mulliken gross atomic population
  ZA   - Total nuclear charge
  QA   - Mulliken gross atomic charge
  VA   - Mayer's total valence
  BVA  - Mayer's bonded valence
  FA   - Mayer's free valence

  ATOM       NA         ZA         QA         VA         BVA        FA
  0 N      5.0000     5.0000    -0.0000     3.0209     0.0000     3.0209

  Mayer bond orders larger than 0.100000


-------
TIMINGS
-------

Total SCF time: 0 days 0 hours 0 min 0 sec 

Total time                  ....       0.879 sec
Sum of individual times     ....       0.721 sec  ( 82.1%)

Fock matrix formation       ....       0.658 sec  ( 74.8%)
Diagonalization             ....       0.029 sec  (  3.3%)
Density matrix formation    ....       0.001 sec  (  0.1%)
Population analysis         ....       0.003 sec  (  0.3%)
Initial guess               ....       0.001 sec  (  0.1%)
Orbital Transformation      ....       0.000 sec  (  0.0%)
Orbital Orthonormalization  ....       0.000 sec  (  0.0%)
DIIS solution               ....       0.030 sec  (  3.4%)

Maximum memory used throughout the entire SCF-calculation: 228.3 MB

-------------------------   --------------------
FINAL SINGLE POINT ENERGY        -9.643263758658
-------------------------   --------------------


                            ***************************************
                            *     ORCA property calculations      *
                            ***************************************

                                    ---------------------
                                    Active property flags
                                    ---------------------
   (+) Dipole Moment


------------------------------------------------------------------------------
                       ORCA ELECTRIC PROPERTIES CALCULATION
------------------------------------------------------------------------------

Dipole Moment Calculation                       ... on
Quadrupole Moment Calculation                   ... off
Polarizability Calculation                      ... off
GBWName                                         ... mol.gbw
Electron density                                ... mol.scfp
The origin for moment calculation is the CENTER OF MASS  = ( 0.000000,  0.000000  0.000000)

-------------
DIPOLE MOMENT
-------------
                                X             Y             Z
Electronic contribution:      0.00000      -0.00000      -0.00000
Nuclear contribution   :      0.00000       0.00000       0.00000
                        -----------------------------------------
Total Dipole Moment    :      0.00000      -0.00000      -0.00000
                        -----------------------------------------
Magnitude (a.u.)       :      0.00000
Magnitude (Debye)      :      0.00000



--------------------
Rotational spectrum 
--------------------
 
Rotational constants in cm-1:     0.000000     0.000000     0.000000 
Rotational constants in MHz :     0.000000     0.000000     0.000000 

 Dipole components along the rotational axes: 
x,y,z [a.u.] :     0.000000    -0.000000    -0.000000 
x,y,z [Debye]:     0.000000    -0.000000    -0.000000 

 

Timings for individual modules:

Sum of individual times         ...        1.937 sec (=   0.032 min)
GTO integral calculation        ...        0.603 sec (=   0.010 min)  31.1 %
SCF iterations                  ...        1.334 sec (=   0.022 min)  68.9 %
                             ****ORCA TERMINATED NORMALLY****
TOTAL RUN TIME: 0 days 0 hours 0 minutes 2 seconds 537 msec
