
                                 *****************
                                 * O   R   C   A *
                                 *****************

                                            #,                                       
                                            ###                                      
                                            ####                                     
                                            #####                                    
                                            ######                                   
                                           ########,                                 
                                     ,,################,,,,,                         
                               ,,#################################,,                 
                          ,,##########################################,,             
                       ,#########################################, ''#####,          
                    ,#############################################,,   '####,        
                  ,##################################################,,,,####,       
                ,###########''''           ''''###############################       
              ,#####''   ,,,,##########,,,,          '''####'''          '####       
            ,##' ,,,,###########################,,,                        '##       
           ' ,,###''''                  '''############,,,                           
         ,,##''                                '''############,,,,        ,,,,,,###''
      ,#''                                            '''#######################'''  
     '                                                          ''''####''''         
             ,#######,   #######,   ,#######,      ##                                
            ,#'     '#,  ##    ##  ,#'     '#,    #''#        ######   ,####,        
            ##       ##  ##   ,#'  ##            #'  '#       #        #'  '#        
            ##       ##  #######   ##           ,######,      #####,   #    #        
            '#,     ,#'  ##    ##  '#,     ,#' ,#      #,         ##   #,  ,#        
             '#######'   ##     ##  '#######'  #'      '#     #####' # '####'        



                  #######################################################
                  #                        -***-                        #
                  #          Department of theory and spectroscopy      #
                  #    Directorship and core code : Frank Neese         #
                  #        Max Planck Institute fuer Kohlenforschung    #
                  #                Kaiser Wilhelm Platz 1               #
                  #                 D-45470 Muelheim/Ruhr               #
                  #                      Germany                        #
                  #                                                     #
                  #                  All rights reserved                #
                  #                        -***-                        #
                  #######################################################


                         Program Version 5.0.3 -  RELEASE  -


 With contributions from (in alphabetic order):
   Daniel Aravena         : Magnetic Suceptibility
   Michael Atanasov       : Ab Initio Ligand Field Theory (pilot matlab implementation)
   Alexander A. Auer      : GIAO ZORA, VPT2 properties, NMR spectrum
   Ute Becker             : Parallelization
   Giovanni Bistoni       : ED, misc. LED, open-shell LED, HFLD
   Martin Brehm           : Molecular dynamics
   Dmytro Bykov           : SCF Hessian
   Vijay G. Chilkuri      : MRCI spin determinant printing, contributions to CSF-ICE
   Dipayan Datta          : RHF DLPNO-CCSD density
   Achintya Kumar Dutta   : EOM-CC, STEOM-CC
   Dmitry Ganyushin       : Spin-Orbit,Spin-Spin,Magnetic field MRCI
   Miquel Garcia          : C-PCM and meta-GGA Hessian, CC/C-PCM, Gaussian charge scheme
   Yang Guo               : DLPNO-NEVPT2, F12-NEVPT2, CIM, IAO-localization
   Andreas Hansen         : Spin unrestricted coupled pair/coupled cluster methods
   Benjamin Helmich-Paris : MC-RPA, TRAH-SCF, COSX integrals
   Lee Huntington         : MR-EOM, pCC
   Robert Izsak           : Overlap fitted RIJCOSX, COSX-SCS-MP3, EOM
   Marcus Kettner         : VPT2
   Christian Kollmar      : KDIIS, OOCD, Brueckner-CCSD(T), CCSD density, CASPT2, CASPT2-K
   Simone Kossmann        : Meta GGA functionals, TD-DFT gradient, OOMP2, MP2 Hessian
   Martin Krupicka        : Initial AUTO-CI
   Lucas Lang             : DCDCAS
   Marvin Lechner         : AUTO-CI (C++ implementation), FIC-MRCC
   Dagmar Lenk            : GEPOL surface, SMD
   Dimitrios Liakos       : Extrapolation schemes; Compound Job, initial MDCI parallelization
   Dimitrios Manganas     : Further ROCIS development; embedding schemes
   Dimitrios Pantazis     : SARC Basis sets
   Anastasios Papadopoulos: AUTO-CI, single reference methods and gradients
   Taras Petrenko         : DFT Hessian,TD-DFT gradient, ASA, ECA, R-Raman, ABS, FL, XAS/XES, NRVS
   Peter Pinski           : DLPNO-MP2, DLPNO-MP2 Gradient
   Christoph Reimann      : Effective Core Potentials
   Marius Retegan         : Local ZFS, SOC
   Christoph Riplinger    : Optimizer, TS searches, QM/MM, DLPNO-CCSD(T), (RO)-DLPNO pert. Triples
   Tobias Risthaus        : Range-separated hybrids, TD-DFT gradient, RPA, STAB
   Michael Roemelt        : Original ROCIS implementation
   Masaaki Saitow         : Open-shell DLPNO-CCSD energy and density
   Barbara Sandhoefer     : DKH picture change effects
   Avijit Sen             : IP-ROCIS
   Kantharuban Sivalingam : CASSCF convergence, NEVPT2, FIC-MRCI
   Bernardo de Souza      : ESD, SOC TD-DFT
   Georgi Stoychev        : AutoAux, RI-MP2 NMR, DLPNO-MP2 response
   Willem Van den Heuvel  : Paramagnetic NMR
   Boris Wezisla          : Elementary symmetry handling
   Frank Wennmohs         : Technical directorship


 We gratefully acknowledge several colleagues who have allowed us to
 interface, adapt or use parts of their codes:
   Stefan Grimme, W. Hujo, H. Kruse, P. Pracht,  : VdW corrections, initial TS optimization,
                  C. Bannwarth, S. Ehlert          DFT functionals, gCP, sTDA/sTD-DF
   Ed Valeev, F. Pavosevic, A. Kumar             : LibInt (2-el integral package), F12 methods
   Garnet Chan, S. Sharma, J. Yang, R. Olivares  : DMRG
   Ulf Ekstrom                                   : XCFun DFT Library
   Mihaly Kallay                                 : mrcc  (arbitrary order and MRCC methods)
   Jiri Pittner, Ondrej Demel                    : Mk-CCSD
   Frank Weinhold                                : gennbo (NPA and NBO analysis)
   Christopher J. Cramer and Donald G. Truhlar   : smd solvation model
   Lars Goerigk                                  : TD-DFT with DH, B97 family of functionals
   V. Asgeirsson, H. Jonsson                     : NEB implementation
   FAccTs GmbH                                   : IRC, NEB, NEB-TS, DLPNO-Multilevel, CI-OPT
                                                   MM, QMMM, 2- and 3-layer-ONIOM, Crystal-QMMM,
                                                   LR-CPCM, SF, NACMEs, symmetry and pop. for TD-DFT,
                                                   nearIR, NL-DFT gradient (VV10), updates on ESD,
                                                   ML-optimized integration grids
   S Lehtola, MJT Oliveira, MAL Marques          : LibXC Library
   Liviu Ungur et al                             : ANISO software


 Your calculation uses the libint2 library for the computation of 2-el integrals
 For citations please refer to: http://libint.valeyev.net

 Your ORCA version has been built with support for libXC version: 5.1.0
 For citations please refer to: https://tddft.org/programs/libxc/

 This ORCA versions uses:
   CBLAS   interface :  Fast vector & matrix operations
   LAPACKE interface :  Fast linear algebra routines
   SCALAPACK package :  Parallel linear algebra routines
   Shared memory     :  Shared parallel matrices
   BLAS/LAPACK       :  OpenBLAS 0.3.15  USE64BITINT DYNAMIC_ARCH NO_AFFINITY Haswell SINGLE_THREADED
        Core in use  :  Haswell
   Copyright (c) 2011-2014, The OpenBLAS Project


Reading of a custom orbital basis requested
Basis file: ../../../../basis/aug-cc-pVQZ-CDF.bas
READING GTO-BASIS: HYDROGEN
READING GTO-BASIS: BORON
READING GTO-BASIS: CARBON
READING GTO-BASIS: NITROGEN
READING GTO-BASIS: OXYGEN
READING GTO-BASIS: FLUORINE
READING GTO-BASIS: NEON
Basis read successfully!



***************************************
The coordinates will be read from file: ../../../../../chem_database/O.xyz
***************************************


================================================================================

----- Orbital basis set information -----
Basis read from file: ../../../../basis/aug-cc-pVQZ-CDF.bas

================================================================================
                                        WARNINGS
                       Please study these warnings very carefully!
================================================================================


WARNING: your system is open-shell and RHF/RKS was chosen
  ===> : WILL SWITCH to UHF/UKS


INFO   : the flag for use of the SHARK integral package has been found!

================================================================================
                                       INPUT FILE
================================================================================
NAME = mol.inp
|  1> # ================================================================
|  2> # Orca input file
|  3> # ================================================================
|  4> ! HF cc-pVDZ VeryTightSCF UseSym
|  5> ! PAL4
|  6> 
|  7> %scf
|  8>   Guess = HCore
|  9> end
| 10> 
| 11> %basis
| 12> GTOName = "../../../../basis/aug-cc-pVQZ-CDF.bas";
| 13> newecp O
| 14>  N_core 2
| 15>  lmax d
| 16>  d 8
| 17>   1           11.84855123           6.00000000    1
| 18>   2           16.03222360        -105.02102455    2
| 19>   3           27.60691873          89.14165052    2
| 20>   4           37.08858492         -31.96562708    3
| 21>   5           19.61674323         103.05693443    3
| 22>   6           19.73095572         848.81602927    4
| 23>   7           15.11638449        -710.82937764    4
| 24>   8           15.82135756         639.21910108    4
| 25>  s 8
| 26>   1           18.64062185      -20417.09245707    2
| 27>   2           23.12735261       20432.77307300    2
| 28>   3           16.41373999       -2945.31115230    3
| 29>   4           12.82027697        2096.44628479    3
| 30>   5           24.09487030         848.86486751    3
| 31>   6           12.80442498       -2565.39940195    4
| 32>   7           18.28432789       23832.35650775    4
| 33>   8           21.58235270       70701.69079050    4
| 34>  p 8
| 35>   1           14.31926539        -335.32003597    2
| 36>   2           46.79753465         325.01768787    2
| 37>   3            9.99178896       -1398.11715802    3
| 38>   4           25.74652235       -6076.97303324    3
| 39>   5           22.77931659        7475.09019127    3
| 40>   6           11.22539981        3906.93849077    4
| 41>   7           39.68526223        3904.47201525    4
| 42>   8           43.42083420        2597.07941946    4
| 43> end
| 44> 
| 45> end
| 46> 
| 47> * xyzfile 0 3 ../../../../../chem_database/O.xyz
| 48> 
| 49>                          ****END OF INPUT****
================================================================================

------------------------------------------------------------------------------
                            SYMMETRY HANDLING SETUP
------------------------------------------------------------------------------

------------------
SYMMETRY DETECTION
------------------
The point group will now be determined using a tolerance of 1.0000e-04.
The Z matrix contains a single non-dummy atom.
No further testing needed for point group Kh.
This point group has been found:    Kh
Largest non-degenerate subgroup:    D2h


Symmetry-perfected Cartesians (point groups Kh and D2h):

Atom          Symmetry-perfected Cartesians (x, y, z; au)
  0       0.000000000000    0.000000000000    0.000000000000


-----------------------------------------------
SYMMETRY-PERFECTED CARTESIAN COORDINATES (A.U.)
-----------------------------------------------
Warning (ORCA_SYM): Coordinates were not cleaned so far!

------------------
SYMMETRY REDUCTION
------------------
ORCA supports only abelian point groups.
It is now checked, if the determined point group is supported:
Point Group ( D2h   ) is          ... supported

(Re)building abelian point group:
Creating Character Table          ... done
Making direct product table       ... done
Constructing symmetry operations  ... done
Creating atom transfer table      ... done
Creating asymmetric unit          ... done

----------------------
ASYMMETRIC UNIT IN D2h
----------------------
  #  AT     MASS              COORDS (A.U.)             BAS
   0 O   15.9990   0.00000000   0.00000000   0.00000000   0

----------------------
SYMMETRY ADAPTED BASIS
----------------------
The coefficients for the symmetry adapted linear combinations (SALCS)
of basis functions will now be computed:
Number of basis functions         ...    79
Preparing memory                  ... done
Constructing Gamma(red)           ... done
Reducing Gamma(red)               ... done
Constructing SALCs                ... done
Checking SALC integrity           ... nothing suspicious
Normalizing SALCs                 ... done

Storing the symmetry object:
Symmetry file                     ... mol.sym.tmp
Writing symmetry information      ... done

                       ****************************
                       * Single Point Calculation *
                       ****************************

---------------------------------
CARTESIAN COORDINATES (ANGSTROEM)
---------------------------------
  O      0.000000    0.000000    0.000000

----------------------------
CARTESIAN COORDINATES (A.U.)
----------------------------
  NO LB      ZA    FRAG     MASS         X           Y           Z
   0 O     6.0000*   0    15.999    0.000000    0.000000    0.000000
* core charge reduced due to ECP

--------------------------------
INTERNAL COORDINATES (ANGSTROEM)
--------------------------------
 O      0   0   0     0.000000000000     0.00000000     0.00000000

---------------------------
INTERNAL COORDINATES (A.U.)
---------------------------
 O      0   0   0     0.000000000000     0.00000000     0.00000000

---------------------
BASIS SET INFORMATION
---------------------
There are 1 groups of distinct atoms

 Group   1 Type O   : 14s14p4d3f2g contracted to 5s5p4d3f2g pattern {101111/101111/1111/111/11}

Atom   0O    basis set group =>   1
-------------------------
ECP PARAMETER INFORMATION
-------------------------

 Group 1, Type O  ECP (replacing 2 core electrons, lmax=2)

Atom   0O    ECP group =>   1



           ************************************************************
           *        Program running with 4 parallel MPI-processes     *
           *              working on a common directory               *
           ************************************************************
------------------------------------------------------------------------------
                           ORCA GTO INTEGRAL CALCULATION
------------------------------------------------------------------------------
------------------------------------------------------------------------------
                   ___                                                        
                  /   \      - P O W E R E D   B Y -                         
                 /     \                                                     
                 |  |  |   _    _      __       _____    __    __             
                 |  |  |  | |  | |    /  \     |  _  \  |  |  /  |          
                  \  \/   | |  | |   /    \    | | | |  |  | /  /          
                 / \  \   | |__| |  /  /\  \   | |_| |  |  |/  /          
                |  |  |   |  __  | /  /__\  \  |    /   |      \           
                |  |  |   | |  | | |   __   |  |    \   |  |\   \          
                \     /   | |  | | |  |  |  |  | |\  \  |  | \   \       
                 \___/    |_|  |_| |__|  |__|  |_| \__\ |__|  \__/        
                                                                              
                      - O R C A' S   B I G   F R I E N D -                    
                                      &                                       
                       - I N T E G R A L  F E E D E R -                       
                                                                              
 v1 FN, 2020, v2 2021                                                         
------------------------------------------------------------------------------


Reading SHARK input file mol.SHARKINP.tmp ... ok
----------------------
SHARK INTEGRAL PACKAGE
----------------------

Number of atoms                             ...      1
Number of basis functions                   ...     79
Number of shells                            ...     19
Maximum angular momentum                    ...      4
Integral batch strategy                     ... SHARK/LIBINT Hybrid
RI-J (if used) integral strategy            ... SPLIT-RIJ (Revised 2003 algorithm where possible)
Printlevel                                  ...      1
Contraction scheme used                     ... SEGMENTED contraction
Coulomb Range Separation                    ... NOT USED
Exchange Range Separation                   ... NOT USED
Finite Nucleus Model                        ... NOT USED
Auxiliary Coulomb fitting basis             ... NOT available
Auxiliary J/K fitting basis                 ... NOT available
Auxiliary Correlation fitting basis         ... NOT available
Auxiliary 'external' fitting basis          ... NOT available
Integral threshold                          ...     1.000000e-12
Primitive cut-off                           ...     1.000000e-14
Primitive pair pre-selection threshold      ...     1.000000e-14

Calculating pre-screening integrals         ... done (  0.0 sec) Dimension = 19
Organizing shell pair data                  ... done (  0.0 sec)
Shell pair information
Total number of shell pairs                 ...       190
Shell pairs after pre-screening             ...       190
Total number of primitive shell pairs       ...       793
Primitive shell pairs kept                  ...       793
          la=0 lb=0:     15 shell pairs
          la=1 lb=0:     25 shell pairs
          la=1 lb=1:     15 shell pairs
          la=2 lb=0:     20 shell pairs
          la=2 lb=1:     20 shell pairs
          la=2 lb=2:     10 shell pairs
          la=3 lb=0:     15 shell pairs
          la=3 lb=1:     15 shell pairs
          la=3 lb=2:     12 shell pairs
          la=3 lb=3:      6 shell pairs
          la=4 lb=0:     10 shell pairs
          la=4 lb=1:     10 shell pairs
          la=4 lb=2:      8 shell pairs
          la=4 lb=3:      6 shell pairs
          la=4 lb=4:      3 shell pairs

Calculating one electron integrals          ... done (  0.0 sec)
Calculating ECP integrals                   ... done (  0.0 sec)
Calculating Nuclear repulsion               ... done (  0.0 sec) ENN=      0.000000000000 Eh

SHARK setup successfully completed in   0.2 seconds

Maximum memory used throughout the entire GTOINT-calculation: 33.5 MB


           ************************************************************
           *        Program running with 4 parallel MPI-processes     *
           *              working on a common directory               *
           ************************************************************
-------------------------------------------------------------------------------
                                 ORCA SCF
-------------------------------------------------------------------------------

------------
SCF SETTINGS
------------
Hamiltonian:
 Ab initio Hamiltonian  Method          .... Hartree-Fock(GTOs)


General Settings:
 Integral files         IntName         .... mol
 Hartree-Fock type      HFTyp           .... UHF
 Total Charge           Charge          ....    0
 Multiplicity           Mult            ....    3
 Number of Electrons    NEL             ....    6
 Basis Dimension        Dim             ....   79
 Nuclear Repulsion      ENuc            ....      0.0000000000 Eh

 Symmetry handling      UseSym         .... ON
 Point group                           .... D2h
 Used point group                      .... D2h
 Number of irreps                      .... 8
   Irrep   Ag has   19 symmetry adapted basis functions (ofs=   0)
   Irrep  B1g has    8 symmetry adapted basis functions (ofs=  19)
   Irrep  B2g has    8 symmetry adapted basis functions (ofs=  27)
   Irrep  B3g has    8 symmetry adapted basis functions (ofs=  35)
   Irrep   Au has    3 symmetry adapted basis functions (ofs=  43)
   Irrep  B1u has   11 symmetry adapted basis functions (ofs=  46)
   Irrep  B2u has   11 symmetry adapted basis functions (ofs=  57)
   Irrep  B3u has   11 symmetry adapted basis functions (ofs=  68)

Convergence Acceleration:
 DIIS                   CNVDIIS         .... on
   Start iteration      DIISMaxIt       ....    12
   Startup error        DIISStart       ....  0.200000
   # of expansion vecs  DIISMaxEq       ....     5
   Bias factor          DIISBfac        ....   1.050
   Max. coefficient     DIISMaxC        ....  10.000
 Trust-Rad. Augm. Hess. CNVTRAH         .... auto
   Auto Start mean grad. ratio tolernc. ....  1.125000
   Auto Start start iteration           ....    20
   Auto Start num. interpolation iter.  ....    10
   Max. Number of Micro iterations      ....    16
   Max. Number of Macro iterations      .... Maxiter - #DIIS iter
   Number of Davidson start vectors     ....     2
   Converg. threshold I  (grad. norm)   ....   2.000e-06
   Converg. threshold II (energy diff.) ....   1.000e-09
   Grad. Scal. Fac. for Micro threshold ....   0.100
   Minimum threshold for Micro iter.    ....   0.010
   NR start threshold (gradient norm)   ....   0.001
   Initial trust radius                 ....   0.400
   Minimum AH scaling param. (alpha)    ....   1.000
   Maximum AH scaling param. (alpha)    .... 1000.000
   Orbital update algorithm             .... Taylor
   White noise on init. David. guess    .... on
   Maximum white noise                  ....   0.010
   Quad. conv. algorithm                .... NR
 SOSCF                  CNVSOSCF        .... off
 Level Shifting         CNVShift        .... on
   Level shift para.    LevelShift      ....    0.2500
   Turn off err/grad.   ShiftErr        ....    0.0010
 Zerner damping         CNVZerner       .... off
 Static damping         CNVDamp         .... on
   Fraction old density DampFac         ....    0.7000
   Max. Damping (<1)    DampMax         ....    0.9800
   Min. Damping (>=0)   DampMin         ....    0.0000
   Turn off err/grad.   DampErr         ....    0.1000
 Fernandez-Rico         CNVRico         .... off

SCF Procedure:
 Maximum # iterations   MaxIter         ....   125
 SCF integral mode      SCFMode         .... Direct
   Integral package                     .... SHARK and LIBINT hybrid scheme
 Reset frequency        DirectResetFreq ....    20
 Integral Threshold     Thresh          ....  1.000e-12 Eh
 Primitive CutOff       TCut            ....  1.000e-14 Eh

Convergence Tolerance:
 Convergence Check Mode ConvCheckMode   .... Total+1el-Energy
 Convergence forced     ConvForced      .... 0
 Energy Change          TolE            ....  1.000e-09 Eh
 1-El. energy change                    ....  1.000e-06 Eh
 DIIS Error             TolErr          ....  1.000e-08


Diagonalization of the overlap matrix:
Smallest eigenvalue                        ... 3.346e-03
Time for diagonalization                   ...    0.002 sec
Threshold for overlap eigenvalues          ... 1.000e-08
Number of eigenvalues below threshold      ... 0
Time for construction of square roots      ...    0.001 sec
Producing symmetrization matrix            ... done (   0.000 sec)
Total time needed                          ...    0.003 sec

--------------------
INITIAL GUESS: HCORE
--------------------
Diagonalizing the Hamiltonian                      ... done
Diagonalizing the Hamiltonian                      ... done
Back transforming the eigenvectors                 ... done
                      -----------------
                      INTIAL GUESS DONE 
                      -----------------
The symmetry of the initial guess is 3-Au
Irrep occupations for operator 0
    Ag -    1
   B1g -    0
   B2g -    0
   B3g -    0
    Au -    0
   B1u -    1
   B2u -    1
   B3u -    1
Irrep occupations for operator 1
    Ag -    2
   B1g -    0
   B2g -    0
   B3g -    0
    Au -    0
   B1u -    0
   B2u -    0
   B3u -    0
--------------
SCF ITERATIONS
--------------
ITER       Energy         Delta-E        Max-DP      RMS-DP      [F,P]     Damp
               ***  Starting incremental Fock matrix formation  ***
  0    -13.5893742522   0.000000000000 1.21499817  0.02161797  0.7637589 0.7000
  1    -14.2145276573  -0.625153405100 0.80613139  0.01428906  0.4750386 0.7000
  2    -14.5683429895  -0.353815332175 0.51106791  0.00885289  0.2788231 0.7000
                               ***Turning on DIIS***
  3    -14.7894478051  -0.221104815558 0.31684054  0.00543229  0.1615574 0.7000
  4    -15.1626886037  -0.373240798621 0.68371480  0.01042405  0.0987135 0.0000
  5    -15.1646039760  -0.001915372305 0.13550925  0.00221502  0.0527758 0.0000
  6    -15.2737726827  -0.109168706720 0.10174792  0.00164221  0.0250408 0.0000
  7    -15.3033827016  -0.029610018912 0.02059486  0.00032935  0.0046338 0.0000
  8    -15.3052718204  -0.001889118769 0.00368273  0.00006727  0.0007733 0.0000
  9    -15.3052685660   0.000003254397 0.00122330  0.00001356  0.0001857 0.0000
 10    -15.3052302481   0.000038317881 0.00052849  0.00000579  0.0000665 0.0000
 11    -15.3052277508   0.000002497342 0.00013101  0.00000141  0.0000140 0.0000
 12    -15.3052278254  -0.000000074625 0.00001431  0.00000016  0.0000014 0.0000
 13    -15.3052279561  -0.000000130664 0.00000169  0.00000002  0.0000002 0.0000
 14    -15.3052279806  -0.000000024551 0.00000021  0.00000000  0.0000000 0.0000
                            ***DIIS convergence achieved***

               *****************************************************
               *                     SUCCESS                       *
               *           SCF CONVERGED AFTER  15 CYCLES          *
               *****************************************************


----------------
TOTAL SCF ENERGY
----------------

Total Energy       :          -15.30522798 Eh            -416.47643 eV

Components:
Nuclear Repulsion  :            0.00000000 Eh               0.00000 eV
Electronic Energy  :          -15.30522798 Eh            -416.47643 eV
One Electron Energy:          -24.42627254 Eh            -664.67267 eV
Two Electron Energy:            9.12104456 Eh             248.19624 eV

Virial components:
Potential Energy   :          -26.25228693 Eh            -714.36104 eV
Kinetic Energy     :           10.94705895 Eh             297.88462 eV
Virial Ratio       :            2.39811323


---------------
SCF CONVERGENCE
---------------

  Last Energy change         ...   -3.1957e-09  Tolerance :   1.0000e-09
  Last MAX-Density change    ...    3.2124e-08  Tolerance :   1.0000e-08
  Last RMS-Density change    ...    4.3978e-10  Tolerance :   1.0000e-09
  Last DIIS Error            ...    5.3164e-09  Tolerance :   1.0000e-08

             **** THE GBW FILE WAS UPDATED (mol.gbw) ****
             **** DENSITY mol.scfp WAS UPDATED ****
             **** ENERGY FILE WAS UPDATED (mol.en.tmp) ****
----------------------
UHF SPIN CONTAMINATION
----------------------

Expectation value of <S**2>     :     3.003375
Ideal value S*(S+1) for S=1.0   :     2.000000
Deviation                       :     1.003375

             **** THE GBW FILE WAS UPDATED (mol.gbw) ****
             **** DENSITY mol.scfp WAS UPDATED ****
----------------
ORBITAL ENERGIES
----------------
                 SPIN UP ORBITALS
  NO   OCC          E(Eh)            E(eV)    Irrep 
   0   1.0000      -1.781548       -48.4784    1-Ag
   1   1.0000      -1.026129       -27.9224    1-B1u
   2   1.0000      -1.026129       -27.9224    1-B2u
   3   1.0000      -1.026129       -27.9224    1-B3u
   4   0.0000       0.119215         3.2440    2-B1u
   5   0.0000       0.119215         3.2440    2-B2u
   6   0.0000       0.119215         3.2440    2-B3u
   7   0.0000       0.131748         3.5850    2-Ag
   8   0.0000       0.409115        11.1326    1-B1g
   9   0.0000       0.409115        11.1326    3-Ag
  10   0.0000       0.409115        11.1326    1-B3g
  11   0.0000       0.409115        11.1326    1-B2g
  12   0.0000       0.409115        11.1326    4-Ag
  13   0.0000       0.543406        14.7868    3-B1u
  14   0.0000       0.543406        14.7868    3-B3u
  15   0.0000       0.543406        14.7868    3-B2u
  16   0.0000       0.878047        23.8929    5-Ag
  17   0.0000       1.197203        32.5776    4-B2u
  18   0.0000       1.197203        32.5776    4-B3u
  19   0.0000       1.197203        32.5776    4-B1u
  20   0.0000       1.197203        32.5776    1-Au
  21   0.0000       1.197203        32.5776    5-B2u
  22   0.0000       1.197203        32.5776    5-B3u
  23   0.0000       1.197203        32.5776    5-B1u
  24   0.0000       1.297786        35.3146    6-Ag
  25   0.0000       1.297786        35.3146    2-B3g
  26   0.0000       1.297786        35.3146    2-B2g
  27   0.0000       1.297786        35.3146    7-Ag
  28   0.0000       1.297786        35.3146    2-B1g
  29   0.0000       2.154974        58.6398    6-B1u
  30   0.0000       2.154974        58.6398    6-B2u
  31   0.0000       2.154974        58.6398    6-B3u
  32   0.0000       3.395278        92.3902    8-Ag
  33   0.0000       3.395278        92.3902    3-B2g
  34   0.0000       3.395278        92.3902    3-B3g
  35   0.0000       3.395278        92.3902    9-Ag
  36   0.0000       3.395278        92.3902    3-B1g
  37   0.0000       3.395278        92.3902    4-B2g
  38   0.0000       3.395278        92.3902    4-B3g
  39   0.0000       3.395278        92.3902    4-B1g
  40   0.0000       3.395278        92.3902   10-Ag
  41   0.0000       3.706928       100.8706    7-B1u
  42   0.0000       3.706928       100.8706    7-B2u
  43   0.0000       3.706928       100.8706    7-B3u
  44   0.0000       3.706928       100.8706    8-B1u
  45   0.0000       3.706928       100.8706    2-Au
  46   0.0000       3.706928       100.8706    8-B2u
  47   0.0000       3.706928       100.8706    8-B3u
  48   0.0000       3.907714       106.3343   11-Ag
  49   0.0000       3.907714       106.3343    5-B3g
  50   0.0000       3.907714       106.3343    5-B2g
  51   0.0000       3.907714       106.3343   12-Ag
  52   0.0000       3.907714       106.3343    5-B1g
  53   0.0000       4.084204       111.1368   13-Ag
  54   0.0000       8.759397       238.3553    9-B1u
  55   0.0000       8.759397       238.3553    9-B3u
  56   0.0000       8.759397       238.3553    9-B2u
  57   0.0000      10.160584       276.4835    6-B1g
  58   0.0000      10.160584       276.4835   14-Ag
  59   0.0000      10.160584       276.4835    6-B3g
  60   0.0000      10.160584       276.4835    6-B2g
  61   0.0000      10.160584       276.4835   15-Ag
  62   0.0000      10.160584       276.4835    7-B1g
  63   0.0000      10.160584       276.4835    7-B2g
  64   0.0000      10.160584       276.4835    7-B3g
  65   0.0000      10.160584       276.4835   16-Ag
  66   0.0000      11.190121       304.4987   10-B2u
  67   0.0000      11.190121       304.4987   10-B3u
  68   0.0000      11.190121       304.4987    3-Au
  69   0.0000      11.190121       304.4987   10-B1u
  70   0.0000      11.190121       304.4987   11-B2u
  71   0.0000      11.190121       304.4987   11-B3u
  72   0.0000      11.190121       304.4987   11-B1u
  73   0.0000      12.148978       330.5905   17-Ag
  74   0.0000      12.148978       330.5905    8-B3g
  75   0.0000      12.148978       330.5905    8-B2g
  76   0.0000      12.148978       330.5905   18-Ag
  77   0.0000      12.148978       330.5905    8-B1g
  78   0.0000      17.325425       471.4488   19-Ag

                 SPIN DOWN ORBITALS
  NO   OCC          E(Eh)            E(eV)    Irrep 
   0   1.0000      -1.230240       -33.4765    1-Ag
   1   1.0000      -0.094008        -2.5581    2-Ag
   2   0.0000      -0.107358        -2.9214    1-B3u
   3   0.0000      -0.107358        -2.9214    1-B2u
   4   0.0000      -0.107358        -2.9214    1-B1u
   5   0.0000       0.115464         3.1419    2-B1u
   6   0.0000       0.115464         3.1419    2-B2u
   7   0.0000       0.115464         3.1419    2-B3u
   8   0.0000       0.393035        10.6950    3-Ag
   9   0.0000       0.393035        10.6950    1-B2g
  10   0.0000       0.393035        10.6950    1-B3g
  11   0.0000       0.393035        10.6950    4-Ag
  12   0.0000       0.393035        10.6950    1-B1g
  13   0.0000       0.611806        16.6481    3-B3u
  14   0.0000       0.611806        16.6481    3-B2u
  15   0.0000       0.611806        16.6481    3-B1u
  16   0.0000       0.936123        25.4732    5-Ag
  17   0.0000       1.194985        32.5172    4-B1u
  18   0.0000       1.194985        32.5172    4-B3u
  19   0.0000       1.194985        32.5172    4-B2u
  20   0.0000       1.194985        32.5172    5-B1u
  21   0.0000       1.194985        32.5172    1-Au
  22   0.0000       1.194985        32.5172    5-B3u
  23   0.0000       1.194985        32.5172    5-B2u
  24   0.0000       1.398422        38.0530    6-Ag
  25   0.0000       1.398422        38.0530    2-B1g
  26   0.0000       1.398422        38.0530    2-B3g
  27   0.0000       1.398422        38.0530    2-B2g
  28   0.0000       1.398422        38.0530    7-Ag
  29   0.0000       2.323084        63.2143    6-B2u
  30   0.0000       2.323084        63.2143    6-B3u
  31   0.0000       2.323084        63.2143    6-B1u
  32   0.0000       3.415071        92.9288    8-Ag
  33   0.0000       3.415071        92.9288    3-B2g
  34   0.0000       3.415071        92.9288    3-B3g
  35   0.0000       3.415071        92.9288    9-Ag
  36   0.0000       3.415071        92.9288    3-B1g
  37   0.0000       3.415071        92.9288    4-B2g
  38   0.0000       3.415071        92.9288    4-B3g
  39   0.0000       3.415071        92.9288   10-Ag
  40   0.0000       3.415071        92.9288    4-B1g
  41   0.0000       3.777909       102.8021    7-B2u
  42   0.0000       3.777909       102.8021    7-B3u
  43   0.0000       3.777909       102.8021    7-B1u
  44   0.0000       3.777909       102.8021    2-Au
  45   0.0000       3.777909       102.8021    8-B3u
  46   0.0000       3.777909       102.8021    8-B2u
  47   0.0000       3.777909       102.8021    8-B1u
  48   0.0000       4.099512       111.5534   11-Ag
  49   0.0000       4.099512       111.5534    5-B1g
  50   0.0000       4.099512       111.5534    5-B3g
  51   0.0000       4.099512       111.5534    5-B2g
  52   0.0000       4.099512       111.5534   12-Ag
  53   0.0000       4.247986       115.5936   13-Ag
  54   0.0000       8.916208       242.6224    9-B2u
  55   0.0000       8.916208       242.6224    9-B3u
  56   0.0000       8.916208       242.6224    9-B1u
  57   0.0000      10.234920       278.5063    6-B1g
  58   0.0000      10.234920       278.5063   14-Ag
  59   0.0000      10.234920       278.5063    6-B3g
  60   0.0000      10.234920       278.5063    6-B2g
  61   0.0000      10.234920       278.5063   15-Ag
  62   0.0000      10.234920       278.5063    7-B1g
  63   0.0000      10.234920       278.5063    7-B2g
  64   0.0000      10.234920       278.5063    7-B3g
  65   0.0000      10.234920       278.5063   16-Ag
  66   0.0000      11.321822       308.0824   10-B2u
  67   0.0000      11.321822       308.0824   10-B3u
  68   0.0000      11.321822       308.0824    3-Au
  69   0.0000      11.321822       308.0824   10-B1u
  70   0.0000      11.321822       308.0824   11-B2u
  71   0.0000      11.321822       308.0824   11-B3u
  72   0.0000      11.321822       308.0824   11-B1u
  73   0.0000      12.319467       335.2297   17-Ag
  74   0.0000      12.319467       335.2297    8-B1g
  75   0.0000      12.319467       335.2297    8-B3g
  76   0.0000      12.319467       335.2297    8-B2g
  77   0.0000      12.319467       335.2297   18-Ag
  78   0.0000      17.442340       474.6302   19-Ag

                    ********************************
                    * MULLIKEN POPULATION ANALYSIS *
                    ********************************

--------------------------------------------
MULLIKEN ATOMIC CHARGES AND SPIN POPULATIONS
--------------------------------------------
   0 O :   -0.000000    2.000000
Sum of atomic charges         :   -0.0000000
Sum of atomic spin populations:    2.0000000

-----------------------------------------------------
MULLIKEN REDUCED ORBITAL CHARGES AND SPIN POPULATIONS
-----------------------------------------------------
CHARGE
  0 O s       :     3.000000  s :     3.000000
      pz      :     1.000000  p :     3.000000
      px      :     1.000000
      py      :     1.000000
      dz2     :     0.000000  d :     0.000000
      dxz     :     0.000000
      dyz     :     0.000000
      dx2y2   :     0.000000
      dxy     :     0.000000
      f0      :     0.000000  f :     0.000000
      f+1     :     0.000000
      f-1     :     0.000000
      f+2     :     0.000000
      f-2     :     0.000000
      f+3     :     0.000000
      f-3     :     0.000000
      g0      :     0.000000  g :     0.000000
      g+1     :     0.000000
      g-1     :     0.000000
      g+2     :     0.000000
      g-2     :     0.000000
      g+3     :     0.000000
      g-3     :     0.000000
      g+4     :     0.000000
      g-4     :     0.000000

SPIN
  0 O s       :    -1.000000  s :    -1.000000
      pz      :     1.000000  p :     3.000000
      px      :     1.000000
      py      :     1.000000
      dz2     :    -0.000000  d :    -0.000000
      dxz     :     0.000000
      dyz     :     0.000000
      dx2y2   :    -0.000000
      dxy     :    -0.000000
      f0      :     0.000000  f :     0.000000
      f+1     :     0.000000
      f-1     :     0.000000
      f+2     :     0.000000
      f-2     :     0.000000
      f+3     :     0.000000
      f-3     :    -0.000000
      g0      :    -0.000000  g :    -0.000000
      g+1     :     0.000000
      g-1     :     0.000000
      g+2     :     0.000000
      g-2     :     0.000000
      g+3     :     0.000000
      g-3     :     0.000000
      g+4     :    -0.000000
      g-4     :    -0.000000


                     *******************************
                     * LOEWDIN POPULATION ANALYSIS *
                     *******************************

-------------------------------------------
LOEWDIN ATOMIC CHARGES AND SPIN POPULATIONS
-------------------------------------------
   0 O :    0.000000    2.000000

----------------------------------------------------
LOEWDIN REDUCED ORBITAL CHARGES AND SPIN POPULATIONS
----------------------------------------------------
CHARGE
  0 O s       :     3.000000  s :     3.000000
      pz      :     1.000000  p :     3.000000
      px      :     1.000000
      py      :     1.000000
      dz2     :     0.000000  d :     0.000000
      dxz     :     0.000000
      dyz     :     0.000000
      dx2y2   :     0.000000
      dxy     :     0.000000
      f0      :     0.000000  f :     0.000000
      f+1     :     0.000000
      f-1     :     0.000000
      f+2     :     0.000000
      f-2     :     0.000000
      f+3     :     0.000000
      f-3     :     0.000000
      g0      :     0.000000  g :     0.000000
      g+1     :     0.000000
      g-1     :     0.000000
      g+2     :     0.000000
      g-2     :     0.000000
      g+3     :     0.000000
      g-3     :     0.000000
      g+4     :     0.000000
      g-4     :     0.000000

SPIN
  0 O s       :    -1.000000  s :    -1.000000
      pz      :     1.000000  p :     3.000000
      px      :     1.000000
      py      :     1.000000
      dz2     :    -0.000000  d :    -0.000000
      dxz     :     0.000000
      dyz     :     0.000000
      dx2y2   :    -0.000000
      dxy     :    -0.000000
      f0      :     0.000000  f :     0.000000
      f+1     :     0.000000
      f-1     :     0.000000
      f+2     :     0.000000
      f-2     :     0.000000
      f+3     :     0.000000
      f-3     :    -0.000000
      g0      :    -0.000000  g :    -0.000000
      g+1     :     0.000000
      g-1     :     0.000000
      g+2     :    -0.000000
      g-2     :    -0.000000
      g+3     :     0.000000
      g-3     :    -0.000000
      g+4     :     0.000000
      g-4     :    -0.000000


                      *****************************
                      * MAYER POPULATION ANALYSIS *
                      *****************************

  NA   - Mulliken gross atomic population
  ZA   - Total nuclear charge
  QA   - Mulliken gross atomic charge
  VA   - Mayer's total valence
  BVA  - Mayer's bonded valence
  FA   - Mayer's free valence

  ATOM       NA         ZA         QA         VA         BVA        FA
  0 O      6.0000     6.0000    -0.0000     4.0067     0.0000     4.0067

  Mayer bond orders larger than 0.100000


-------
TIMINGS
-------

Total SCF time: 0 days 0 hours 0 min 1 sec 

Total time                  ....       1.950 sec
Sum of individual times     ....       1.784 sec  ( 91.5%)

Fock matrix formation       ....       1.712 sec  ( 87.8%)
Diagonalization             ....       0.032 sec  (  1.7%)
Density matrix formation    ....       0.001 sec  (  0.1%)
Population analysis         ....       0.003 sec  (  0.2%)
Initial guess               ....       0.001 sec  (  0.0%)
Orbital Transformation      ....       0.000 sec  (  0.0%)
Orbital Orthonormalization  ....       0.000 sec  (  0.0%)
DIIS solution               ....       0.035 sec  (  1.8%)

Maximum memory used throughout the entire SCF-calculation: 228.3 MB

-------------------------   --------------------
FINAL SINGLE POINT ENERGY       -15.305227983825
-------------------------   --------------------


                            ***************************************
                            *     ORCA property calculations      *
                            ***************************************

                                    ---------------------
                                    Active property flags
                                    ---------------------
   (+) Dipole Moment


------------------------------------------------------------------------------
                       ORCA ELECTRIC PROPERTIES CALCULATION
------------------------------------------------------------------------------

Dipole Moment Calculation                       ... on
Quadrupole Moment Calculation                   ... off
Polarizability Calculation                      ... off
GBWName                                         ... mol.gbw
Electron density                                ... mol.scfp
The origin for moment calculation is the CENTER OF MASS  = ( 0.000000,  0.000000  0.000000)

-------------
DIPOLE MOMENT
-------------
                                X             Y             Z
Electronic contribution:     -0.00000      -0.00000      -0.00000
Nuclear contribution   :      0.00000       0.00000       0.00000
                        -----------------------------------------
Total Dipole Moment    :     -0.00000      -0.00000      -0.00000
                        -----------------------------------------
Magnitude (a.u.)       :      0.00000
Magnitude (Debye)      :      0.00000



--------------------
Rotational spectrum 
--------------------
 
Rotational constants in cm-1:     0.000000     0.000000     0.000000 
Rotational constants in MHz :     0.000000     0.000000     0.000000 

 Dipole components along the rotational axes: 
x,y,z [a.u.] :    -0.000000    -0.000000    -0.000000 
x,y,z [Debye]:    -0.000000    -0.000000    -0.000000 

 

Timings for individual modules:

Sum of individual times         ...        3.109 sec (=   0.052 min)
GTO integral calculation        ...        0.659 sec (=   0.011 min)  21.2 %
SCF iterations                  ...        2.450 sec (=   0.041 min)  78.8 %
                             ****ORCA TERMINATED NORMALLY****
TOTAL RUN TIME: 0 days 0 hours 0 minutes 3 seconds 758 msec
