
                                 *****************
                                 * O   R   C   A *
                                 *****************

                                            #,                                       
                                            ###                                      
                                            ####                                     
                                            #####                                    
                                            ######                                   
                                           ########,                                 
                                     ,,################,,,,,                         
                               ,,#################################,,                 
                          ,,##########################################,,             
                       ,#########################################, ''#####,          
                    ,#############################################,,   '####,        
                  ,##################################################,,,,####,       
                ,###########''''           ''''###############################       
              ,#####''   ,,,,##########,,,,          '''####'''          '####       
            ,##' ,,,,###########################,,,                        '##       
           ' ,,###''''                  '''############,,,                           
         ,,##''                                '''############,,,,        ,,,,,,###''
      ,#''                                            '''#######################'''  
     '                                                          ''''####''''         
             ,#######,   #######,   ,#######,      ##                                
            ,#'     '#,  ##    ##  ,#'     '#,    #''#        ######   ,####,        
            ##       ##  ##   ,#'  ##            #'  '#       #        #'  '#        
            ##       ##  #######   ##           ,######,      #####,   #    #        
            '#,     ,#'  ##    ##  '#,     ,#' ,#      #,         ##   #,  ,#        
             '#######'   ##     ##  '#######'  #'      '#     #####' # '####'        



                  #######################################################
                  #                        -***-                        #
                  #          Department of theory and spectroscopy      #
                  #    Directorship and core code : Frank Neese         #
                  #        Max Planck Institute fuer Kohlenforschung    #
                  #                Kaiser Wilhelm Platz 1               #
                  #                 D-45470 Muelheim/Ruhr               #
                  #                      Germany                        #
                  #                                                     #
                  #                  All rights reserved                #
                  #                        -***-                        #
                  #######################################################


                         Program Version 5.0.3 -  RELEASE  -


 With contributions from (in alphabetic order):
   Daniel Aravena         : Magnetic Suceptibility
   Michael Atanasov       : Ab Initio Ligand Field Theory (pilot matlab implementation)
   Alexander A. Auer      : GIAO ZORA, VPT2 properties, NMR spectrum
   Ute Becker             : Parallelization
   Giovanni Bistoni       : ED, misc. LED, open-shell LED, HFLD
   Martin Brehm           : Molecular dynamics
   Dmytro Bykov           : SCF Hessian
   Vijay G. Chilkuri      : MRCI spin determinant printing, contributions to CSF-ICE
   Dipayan Datta          : RHF DLPNO-CCSD density
   Achintya Kumar Dutta   : EOM-CC, STEOM-CC
   Dmitry Ganyushin       : Spin-Orbit,Spin-Spin,Magnetic field MRCI
   Miquel Garcia          : C-PCM and meta-GGA Hessian, CC/C-PCM, Gaussian charge scheme
   Yang Guo               : DLPNO-NEVPT2, F12-NEVPT2, CIM, IAO-localization
   Andreas Hansen         : Spin unrestricted coupled pair/coupled cluster methods
   Benjamin Helmich-Paris : MC-RPA, TRAH-SCF, COSX integrals
   Lee Huntington         : MR-EOM, pCC
   Robert Izsak           : Overlap fitted RIJCOSX, COSX-SCS-MP3, EOM
   Marcus Kettner         : VPT2
   Christian Kollmar      : KDIIS, OOCD, Brueckner-CCSD(T), CCSD density, CASPT2, CASPT2-K
   Simone Kossmann        : Meta GGA functionals, TD-DFT gradient, OOMP2, MP2 Hessian
   Martin Krupicka        : Initial AUTO-CI
   Lucas Lang             : DCDCAS
   Marvin Lechner         : AUTO-CI (C++ implementation), FIC-MRCC
   Dagmar Lenk            : GEPOL surface, SMD
   Dimitrios Liakos       : Extrapolation schemes; Compound Job, initial MDCI parallelization
   Dimitrios Manganas     : Further ROCIS development; embedding schemes
   Dimitrios Pantazis     : SARC Basis sets
   Anastasios Papadopoulos: AUTO-CI, single reference methods and gradients
   Taras Petrenko         : DFT Hessian,TD-DFT gradient, ASA, ECA, R-Raman, ABS, FL, XAS/XES, NRVS
   Peter Pinski           : DLPNO-MP2, DLPNO-MP2 Gradient
   Christoph Reimann      : Effective Core Potentials
   Marius Retegan         : Local ZFS, SOC
   Christoph Riplinger    : Optimizer, TS searches, QM/MM, DLPNO-CCSD(T), (RO)-DLPNO pert. Triples
   Tobias Risthaus        : Range-separated hybrids, TD-DFT gradient, RPA, STAB
   Michael Roemelt        : Original ROCIS implementation
   Masaaki Saitow         : Open-shell DLPNO-CCSD energy and density
   Barbara Sandhoefer     : DKH picture change effects
   Avijit Sen             : IP-ROCIS
   Kantharuban Sivalingam : CASSCF convergence, NEVPT2, FIC-MRCI
   Bernardo de Souza      : ESD, SOC TD-DFT
   Georgi Stoychev        : AutoAux, RI-MP2 NMR, DLPNO-MP2 response
   Willem Van den Heuvel  : Paramagnetic NMR
   Boris Wezisla          : Elementary symmetry handling
   Frank Wennmohs         : Technical directorship


 We gratefully acknowledge several colleagues who have allowed us to
 interface, adapt or use parts of their codes:
   Stefan Grimme, W. Hujo, H. Kruse, P. Pracht,  : VdW corrections, initial TS optimization,
                  C. Bannwarth, S. Ehlert          DFT functionals, gCP, sTDA/sTD-DF
   Ed Valeev, F. Pavosevic, A. Kumar             : LibInt (2-el integral package), F12 methods
   Garnet Chan, S. Sharma, J. Yang, R. Olivares  : DMRG
   Ulf Ekstrom                                   : XCFun DFT Library
   Mihaly Kallay                                 : mrcc  (arbitrary order and MRCC methods)
   Jiri Pittner, Ondrej Demel                    : Mk-CCSD
   Frank Weinhold                                : gennbo (NPA and NBO analysis)
   Christopher J. Cramer and Donald G. Truhlar   : smd solvation model
   Lars Goerigk                                  : TD-DFT with DH, B97 family of functionals
   V. Asgeirsson, H. Jonsson                     : NEB implementation
   FAccTs GmbH                                   : IRC, NEB, NEB-TS, DLPNO-Multilevel, CI-OPT
                                                   MM, QMMM, 2- and 3-layer-ONIOM, Crystal-QMMM,
                                                   LR-CPCM, SF, NACMEs, symmetry and pop. for TD-DFT,
                                                   nearIR, NL-DFT gradient (VV10), updates on ESD,
                                                   ML-optimized integration grids
   S Lehtola, MJT Oliveira, MAL Marques          : LibXC Library
   Liviu Ungur et al                             : ANISO software


 Your calculation uses the libint2 library for the computation of 2-el integrals
 For citations please refer to: http://libint.valeyev.net

 Your ORCA version has been built with support for libXC version: 5.1.0
 For citations please refer to: https://tddft.org/programs/libxc/

 This ORCA versions uses:
   CBLAS   interface :  Fast vector & matrix operations
   LAPACKE interface :  Fast linear algebra routines
   SCALAPACK package :  Parallel linear algebra routines
   Shared memory     :  Shared parallel matrices
   BLAS/LAPACK       :  OpenBLAS 0.3.15  USE64BITINT DYNAMIC_ARCH NO_AFFINITY Haswell SINGLE_THREADED
        Core in use  :  Haswell
   Copyright (c) 2011-2014, The OpenBLAS Project


Reading of a custom orbital basis requested
Basis file: ../../../../basis/aug-cc-pVQZ-CDF.bas
READING GTO-BASIS: HYDROGEN
READING GTO-BASIS: BORON
READING GTO-BASIS: CARBON
READING GTO-BASIS: NITROGEN
READING GTO-BASIS: OXYGEN
READING GTO-BASIS: FLUORINE
READING GTO-BASIS: NEON
Basis read successfully!



***************************************
The coordinates will be read from file: ../../../../../chem_database/B2H6.xyz
***************************************


================================================================================

----- Orbital basis set information -----
Basis read from file: ../../../../basis/aug-cc-pVQZ-CDF.bas

================================================================================
                                        WARNINGS
                       Please study these warnings very carefully!
================================================================================


INFO   : the flag for use of the SHARK integral package has been found!

================================================================================
                                       INPUT FILE
================================================================================
NAME = mol.inp
|  1> # ================================================================
|  2> # Orca input file
|  3> # ================================================================
|  4> ! HF cc-pVQZ VeryTightSCF UseSym
|  5> ! PAL4
|  6> 
|  7> %basis
|  8> GTOName = "../../../../basis/aug-cc-pVQZ-CDF.bas";
|  9> newecp H
| 10>  N_core 0
| 11>  lmax d
| 12>  d 8
| 13>   1           24.82565390           1.00000000    1
| 14>   2           43.21739125         399.93183331    2
| 15>   3           25.99656714        -404.75536968    2
| 16>   4           40.09801481         -18.40342127    3
| 17>   5           25.58653485          43.22907516    3
| 18>   6           35.46228124       27523.80389205    4
| 19>   7           34.31169613      -27904.33230409    4
| 20>   8           30.34037826        7142.28877990    4
| 21>  s 8
| 22>   1           30.78554662      -79926.55181291    2
| 23>   2           40.15197511       79924.13518241    2
| 24>   3           42.15431331         957.82379649    3
| 25>   4           24.96549455     -793199.31748370    3
| 26>   5           24.94391708      792241.49368720    3
| 27>   6           37.03062672      558531.47868219    4
| 28>   7           29.63405783      313637.56757093    4
| 29>   8           27.58560461     -123639.74640927    4
| 30>  p 8
| 31>   1           39.55054433        1385.30516773    2
| 32>   2           26.07956394       -1385.89131666    2
| 33>   3           16.48182356         -18.51387747    3
| 34>   4            9.81046706           0.64133794    3
| 35>   5           17.90486779          17.87253953    3
| 36>   6           33.50419086      196902.37128298    4
| 37>   7           33.17785501     -198268.80486364    4
| 38>   8           29.62142434       20012.56582766    4
| 39> end
| 40> newecp B
| 41>  N_core 2
| 42>  lmax d
| 43>  d 8
| 44>   1            7.36012488           3.00000000    1
| 45>   2            6.02915850        2789.94706968    2
| 46>   3            6.15064050       -2795.50176250    2
| 47>   4            5.71476249          25.99605879    3
| 48>   5           12.16406320          -3.91568414    3
| 49>   6            7.77302431       -1296.48909094    4
| 50>   7            6.66965795       -1518.45403754    4
| 51>   8            7.33142208        2441.84985041    4
| 52>  s 8
| 53>   1            6.09072627       19489.93061835    2
| 54>   2            6.23007392      -19483.80961474    2
| 55>   3            8.07483380        1096.10597337    3
| 56>   4            5.26267677      -18293.63164349    3
| 57>   5            5.07954789       17197.52567012    3
| 58>   6           15.22800028        -164.29003506    4
| 59>   7            4.78683723       -2127.11495490    4
| 60>   8            7.75641417        -386.33655882    4
| 61>  p 8
| 62>   1           12.58743601        5935.34209387    2
| 63>   2            7.00011059       -5936.95827616    2
| 64>   3            5.50585387         319.38839934    3
| 65>   4            4.75319333      -23627.64850229    3
| 66>   5            4.74397002       23308.26010295    3
| 67>   6           10.01526904        3161.09544793    4
| 68>   7            8.00849846       14212.82036469    4
| 69>   8           11.35097775       15777.45845478    4
| 70> end
| 71> end
| 72> 
| 73> * xyzfile 0 1 ../../../../../chem_database/B2H6.xyz
| 74> 
| 75>                          ****END OF INPUT****
================================================================================

------------------------------------------------------------------------------
                            SYMMETRY HANDLING SETUP
------------------------------------------------------------------------------

------------------
SYMMETRY DETECTION
------------------
The point group will now be determined using a tolerance of 1.0000e-04.
Splitting atom subsets according to nuclear charge, mass and basis set.
Splitting atom subsets according to distance from the molecule's center.
Identifying relative distance patterns of the atoms.
Splitting atom subsets according to atoms' relative distance patterns.
Bring atoms of each subset into input order.
The molecule is neither linear nor planar.
The molecule has a center of inversion.
Analyzing the first atom subset for its symmetry.
The atoms in the selected subset form a 4-gon with alternating side lengths.
Testing point group D2h.
Success!
This point group has been found:    D2h
Largest non-degenerate subgroup:    D2h


Symmetry-perfected Cartesians (point group D2h):

Atom          Symmetry-perfected Cartesians (x, y, z; au)
  0      -1.660868813348    0.000000000000    0.000000000000
  1       1.660868813348    0.000000000000    0.000000000000
  2       0.000000000000    0.000000000000    1.842901628611
  3       0.000000000000    0.000000000000   -1.842901628611
  4      -2.744535052191    1.964671143604    0.000000000000
  5      -2.744535052191   -1.964671143604    0.000000000000
  6       2.744535052191   -1.964671143604    0.000000000000
  7       2.744535052191    1.964671143604    0.000000000000


-----------------------------------------------
SYMMETRY-PERFECTED CARTESIAN COORDINATES (A.U.)
-----------------------------------------------
Warning (ORCA_SYM): Coordinates were not cleaned so far!

------------------
SYMMETRY REDUCTION
------------------
ORCA supports only abelian point groups.
It is now checked, if the determined point group is supported:
Point Group ( D2h   ) is          ... supported

(Re)building abelian point group:
Creating Character Table          ... done
Making direct product table       ... done
Constructing symmetry operations  ... done
Creating atom transfer table      ... done
Creating asymmetric unit          ... done

----------------------
ASYMMETRIC UNIT IN D2h
----------------------
  #  AT     MASS              COORDS (A.U.)             BAS
   0 B   10.8100  -1.66086881   0.00000000   0.00000000   0
   2 H    1.0080   0.00000000   0.00000000   1.84290163   0
   4 H    1.0080  -2.74453505   1.96467114   0.00000000   0

----------------------
SYMMETRY ADAPTED BASIS
----------------------
The coefficients for the symmetry adapted linear combinations (SALCS)
of basis functions will now be computed:
Number of basis functions         ...   434
Preparing memory                  ... done
Constructing Gamma(red)           ... done
Reducing Gamma(red)               ... done
Constructing SALCs                ... done
Checking SALC integrity           ... nothing suspicious
Normalizing SALCs                 ... done

Storing the symmetry object:
Symmetry file                     ... mol.sym.tmp
Writing symmetry information      ... done

                       ****************************
                       * Single Point Calculation *
                       ****************************

---------------------------------
CARTESIAN COORDINATES (ANGSTROEM)
---------------------------------
  B     -0.878894    0.000000    0.000000
  B      0.878894    0.000000    0.000000
  H      0.000000    0.000000    0.975222
  H      0.000000    0.000000   -0.975222
  H     -1.452345    1.039659    0.000000
  H     -1.452345   -1.039659    0.000000
  H      1.452345   -1.039659    0.000000
  H      1.452345    1.039659    0.000000

----------------------------
CARTESIAN COORDINATES (A.U.)
----------------------------
  NO LB      ZA    FRAG     MASS         X           Y           Z
   0 B     3.0000*   0    10.810   -1.660869    0.000000    0.000000
   1 B     3.0000*   0    10.810    1.660869    0.000000    0.000000
   2 H     1.0000*   0     1.008    0.000000    0.000000    1.842902
   3 H     1.0000*   0     1.008    0.000000    0.000000   -1.842902
   4 H     1.0000*   0     1.008   -2.744535    1.964671    0.000000
   5 H     1.0000*   0     1.008   -2.744535   -1.964671    0.000000
   6 H     1.0000*   0     1.008    2.744535   -1.964671    0.000000
   7 H     1.0000*   0     1.008    2.744535    1.964671    0.000000
* core charge reduced due to ECP

--------------------------------
INTERNAL COORDINATES (ANGSTROEM)
--------------------------------
 B      0   0   0     0.000000000000     0.00000000     0.00000000
 B      1   0   0     1.757787844000     0.00000000     0.00000000
 H      1   2   0     1.312825798139    47.97403713     0.00000000
 H      1   2   3     1.312825798139    47.97403713   180.00000000
 H      1   2   3     1.187323809081   118.88009202    90.00000000
 H      1   2   3     1.187323809081   118.88009202   270.00000000
 H      2   1   3     1.187323809081   118.88009202    90.00000000
 H      2   1   3     1.187323809081   118.88009202   270.00000000

---------------------------
INTERNAL COORDINATES (A.U.)
---------------------------
 B      0   0   0     0.000000000000     0.00000000     0.00000000
 B      1   0   0     3.321737626696     0.00000000     0.00000000
 H      1   2   0     2.480881220028    47.97403713     0.00000000
 H      1   2   3     2.480881220028    47.97403713   180.00000000
 H      1   2   3     2.243716831447   118.88009202    90.00000000
 H      1   2   3     2.243716831447   118.88009202   270.00000000
 H      2   1   3     2.243716831447   118.88009202    90.00000000
 H      2   1   3     2.243716831447   118.88009202   270.00000000

---------------------
BASIS SET INFORMATION
---------------------
There are 2 groups of distinct atoms

 Group   1 Type B   : 14s14p4d3f2g contracted to 5s5p4d3f2g pattern {101111/101111/1111/111/11}
 Group   2 Type H   : 12s4p3d2f contracted to 5s4p3d2f pattern {81111/1111/111/11}

Atom   0B    basis set group =>   1
Atom   1B    basis set group =>   1
Atom   2H    basis set group =>   2
Atom   3H    basis set group =>   2
Atom   4H    basis set group =>   2
Atom   5H    basis set group =>   2
Atom   6H    basis set group =>   2
Atom   7H    basis set group =>   2
-------------------------
ECP PARAMETER INFORMATION
-------------------------

 Group 1, Type B  ECP (replacing 2 core electrons, lmax=2)
 Group 2, Type H  ECP (replacing 0 core electrons, lmax=2)

Atom   0B    ECP group =>   1
Atom   1B    ECP group =>   1
Atom   2H    ECP group =>   2
Atom   3H    ECP group =>   2
Atom   4H    ECP group =>   2
Atom   5H    ECP group =>   2
Atom   6H    ECP group =>   2
Atom   7H    ECP group =>   2



           ************************************************************
           *        Program running with 4 parallel MPI-processes     *
           *              working on a common directory               *
           ************************************************************
------------------------------------------------------------------------------
                           ORCA GTO INTEGRAL CALCULATION
------------------------------------------------------------------------------
------------------------------------------------------------------------------
                   ___                                                        
                  /   \      - P O W E R E D   B Y -                         
                 /     \                                                     
                 |  |  |   _    _      __       _____    __    __             
                 |  |  |  | |  | |    /  \     |  _  \  |  |  /  |          
                  \  \/   | |  | |   /    \    | | | |  |  | /  /          
                 / \  \   | |__| |  /  /\  \   | |_| |  |  |/  /          
                |  |  |   |  __  | /  /__\  \  |    /   |      \           
                |  |  |   | |  | | |   __   |  |    \   |  |\   \          
                \     /   | |  | | |  |  |  |  | |\  \  |  | \   \       
                 \___/    |_|  |_| |__|  |__|  |_| \__\ |__|  \__/        
                                                                              
                      - O R C A' S   B I G   F R I E N D -                    
                                      &                                       
                       - I N T E G R A L  F E E D E R -                       
                                                                              
 v1 FN, 2020, v2 2021                                                         
------------------------------------------------------------------------------


Reading SHARK input file mol.SHARKINP.tmp ... ok
----------------------
SHARK INTEGRAL PACKAGE
----------------------

Number of atoms                             ...      8
Number of basis functions                   ...    434
Number of shells                            ...    122
Maximum angular momentum                    ...      4
Integral batch strategy                     ... SHARK/LIBINT Hybrid
RI-J (if used) integral strategy            ... SPLIT-RIJ (Revised 2003 algorithm where possible)
Printlevel                                  ...      1
Contraction scheme used                     ... SEGMENTED contraction
Coulomb Range Separation                    ... NOT USED
Exchange Range Separation                   ... NOT USED
Finite Nucleus Model                        ... NOT USED
Auxiliary Coulomb fitting basis             ... NOT available
Auxiliary J/K fitting basis                 ... NOT available
Auxiliary Correlation fitting basis         ... NOT available
Auxiliary 'external' fitting basis          ... NOT available
Integral threshold                          ...     1.000000e-12
Primitive cut-off                           ...     1.000000e-14
Primitive pair pre-selection threshold      ...     1.000000e-14

Calculating pre-screening integrals         ... done (  0.2 sec) Dimension = 122
Organizing shell pair data                  ... done (  0.4 sec)
Shell pair information
Total number of shell pairs                 ...      7503
Shell pairs after pre-screening             ...      7489
Total number of primitive shell pairs       ...     20448
Primitive shell pairs kept                  ...     19553
          la=0 lb=0:    820 shell pairs
          la=1 lb=0:   1360 shell pairs
          la=1 lb=1:    591 shell pairs
          la=2 lb=0:   1040 shell pairs
          la=2 lb=1:    880 shell pairs
          la=2 lb=2:    349 shell pairs
          la=3 lb=0:    720 shell pairs
          la=3 lb=1:    608 shell pairs
          la=3 lb=2:    468 shell pairs
          la=3 lb=3:    171 shell pairs
          la=4 lb=0:    160 shell pairs
          la=4 lb=1:    136 shell pairs
          la=4 lb=2:    104 shell pairs
          la=4 lb=3:     72 shell pairs
          la=4 lb=4:     10 shell pairs

Calculating one electron integrals          ... done (  0.0 sec)
Calculating ECP integrals                   ... done (  9.6 sec)
Calculating Nuclear repulsion               ... done (  0.0 sec) ENN=     18.903663652757 Eh

SHARK setup successfully completed in  10.7 seconds

Maximum memory used throughout the entire GTOINT-calculation: 41.4 MB


           ************************************************************
           *        Program running with 4 parallel MPI-processes     *
           *              working on a common directory               *
           ************************************************************
-------------------------------------------------------------------------------
                                 ORCA SCF
-------------------------------------------------------------------------------

------------
SCF SETTINGS
------------
Hamiltonian:
 Ab initio Hamiltonian  Method          .... Hartree-Fock(GTOs)


General Settings:
 Integral files         IntName         .... mol
 Hartree-Fock type      HFTyp           .... RHF
 Total Charge           Charge          ....    0
 Multiplicity           Mult            ....    1
 Number of Electrons    NEL             ....   12
 Basis Dimension        Dim             ....  434
 Nuclear Repulsion      ENuc            ....     18.9036636528 Eh

 Symmetry handling      UseSym         .... ON
 Point group                           .... D2h
 Used point group                      .... D2h
 Number of irreps                      .... 8
   Irrep   Ag has   79 symmetry adapted basis functions (ofs=   0)
   Irrep  B1g has   54 symmetry adapted basis functions (ofs=  79)
   Irrep  B2g has   46 symmetry adapted basis functions (ofs= 133)
   Irrep  B3g has   38 symmetry adapted basis functions (ofs= 179)
   Irrep   Au has   32 symmetry adapted basis functions (ofs= 217)
   Irrep  B1u has   54 symmetry adapted basis functions (ofs= 249)
   Irrep  B2u has   60 symmetry adapted basis functions (ofs= 303)
   Irrep  B3u has   71 symmetry adapted basis functions (ofs= 363)

Convergence Acceleration:
 DIIS                   CNVDIIS         .... on
   Start iteration      DIISMaxIt       ....    12
   Startup error        DIISStart       ....  0.200000
   # of expansion vecs  DIISMaxEq       ....     5
   Bias factor          DIISBfac        ....   1.050
   Max. coefficient     DIISMaxC        ....  10.000
 Trust-Rad. Augm. Hess. CNVTRAH         .... auto
   Auto Start mean grad. ratio tolernc. ....  1.125000
   Auto Start start iteration           ....    20
   Auto Start num. interpolation iter.  ....    10
   Max. Number of Micro iterations      ....    16
   Max. Number of Macro iterations      .... Maxiter - #DIIS iter
   Number of Davidson start vectors     ....     2
   Converg. threshold I  (grad. norm)   ....   2.000e-06
   Converg. threshold II (energy diff.) ....   1.000e-09
   Grad. Scal. Fac. for Micro threshold ....   0.100
   Minimum threshold for Micro iter.    ....   0.010
   NR start threshold (gradient norm)   ....   0.001
   Initial trust radius                 ....   0.400
   Minimum AH scaling param. (alpha)    ....   1.000
   Maximum AH scaling param. (alpha)    .... 1000.000
   Orbital update algorithm             .... Taylor
   White noise on init. David. guess    .... on
   Maximum white noise                  ....   0.010
   Quad. conv. algorithm                .... NR
 SOSCF                  CNVSOSCF        .... on
   Start iteration      SOSCFMaxIt      ....   150
   Startup grad/error   SOSCFStart      ....  0.003300
 Level Shifting         CNVShift        .... on
   Level shift para.    LevelShift      ....    0.2500
   Turn off err/grad.   ShiftErr        ....    0.0010
 Zerner damping         CNVZerner       .... off
 Static damping         CNVDamp         .... on
   Fraction old density DampFac         ....    0.7000
   Max. Damping (<1)    DampMax         ....    0.9800
   Min. Damping (>=0)   DampMin         ....    0.0000
   Turn off err/grad.   DampErr         ....    0.1000
 Fernandez-Rico         CNVRico         .... off

SCF Procedure:
 Maximum # iterations   MaxIter         ....   125
 SCF integral mode      SCFMode         .... Direct
   Integral package                     .... SHARK and LIBINT hybrid scheme
 Reset frequency        DirectResetFreq ....    20
 Integral Threshold     Thresh          ....  1.000e-12 Eh
 Primitive CutOff       TCut            ....  1.000e-14 Eh

Convergence Tolerance:
 Convergence Check Mode ConvCheckMode   .... Total+1el-Energy
 Convergence forced     ConvForced      .... 0
 Energy Change          TolE            ....  1.000e-09 Eh
 1-El. energy change                    ....  1.000e-06 Eh
 Orbital Gradient       TolG            ....  2.000e-06
 Orbital Rotation angle TolX            ....  2.000e-06
 DIIS Error             TolErr          ....  1.000e-08


Diagonalization of the overlap matrix:
Smallest eigenvalue                        ... 1.280e-06
Time for diagonalization                   ...    0.039 sec
Threshold for overlap eigenvalues          ... 1.000e-08
Number of eigenvalues below threshold      ... 0
Time for construction of square roots      ...    0.029 sec
Producing symmetrization matrix            ... done (   0.017 sec)
Total time needed                          ...    0.088 sec

Time for model grid setup =    0.061 sec

------------------------------
INITIAL GUESS: MODEL POTENTIAL
------------------------------
Loading Hartree-Fock densities                     ... done
  calling /home/vladimir/bin/orca_5_0_3_linux_x86-64_shared_openmpi411/orca mol_atom5.inp > mol_atom5.out in order to generate an atomic fitting density for atom 0 (B  with ECP) on-the-fly... 
    atom 0 (B ), assumed electronic state with S=2: 1s2 2s2 2p1           ... done
  calling /home/vladimir/bin/orca_5_0_3_linux_x86-64_shared_openmpi411/orca mol_atom1.inp > mol_atom1.out in order to generate an atomic fitting density for atom 2 (H  with ECP) on-the-fly... 
    atom 2 (H ), assumed electronic state with S=2: 1s1           ... done
Calculating cut-offs                               ... done
Initializing the effective Hamiltonian             ... done
Setting up the integral package (SHARK)            ... done
Starting the Coulomb interaction                   ... done (   0.5 sec)
Reading the grid                                   ... done
Mapping shells                                     ... done
Starting the XC term evaluation                    ... done (   0.2 sec)
done (   0.0 sec)
Diagonalizing the Hamiltonian                      ... done (   0.0 sec)
Back transforming the eigenvectors                 ... done (   0.0 sec)
Now organizing SCF variables                       ... done
The symmetry of the initial guess is 1-Ag
Irrep occupations for operator 0
    Ag -    2
   B1g -    1
   B2g -    0
   B3g -    0
    Au -    0
   B1u -    1
   B2u -    1
   B3u -    1
                      ------------------
                      INITIAL GUESS DONE (   1.8 sec)
                      ------------------
--------------
SCF ITERATIONS
--------------
ITER       Energy         Delta-E        Max-DP      RMS-DP      [F,P]     Damp
               ***  Starting incremental Fock matrix formation  ***
  0     -8.6741699121   0.000000000000 0.31817755  0.00202074  0.1823740 0.7000
  1     -8.7317031631  -0.057533251061 0.24272675  0.00155484  0.1272128 0.7000
                               ***Turning on DIIS***
  2     -8.7702573747  -0.038554211570 0.56043419  0.00361880  0.0833352 0.0000
  3     -8.7941224567  -0.023865081972 0.03774881  0.00030229  0.0235658 0.0000
  4     -8.8460532112  -0.051930754497 0.00641644  0.00006884  0.0071789 0.0000
                      *** Initiating the SOSCF procedure ***
                           *** Shutting down DIIS ***
                      *** Re-Reading the Fockian *** 
                      *** Removing any level shift *** 
ITER      Energy       Delta-E        Grad      Rot      Max-DP    RMS-DP
  5     -8.85188478  -0.0058315689  0.001058  0.001058  0.002741  0.000028
               *** Restarting incremental Fock matrix formation ***
  6     -8.85308877  -0.0012039855  0.000332  0.000500  0.001334  0.000015
  7     -8.85309167  -0.0000029057  0.000113  0.000251  0.000451  0.000006
  8     -8.85309205  -0.0000003792  0.000012  0.000007  0.000059  0.000001
  9     -8.85309205  -0.0000000022  0.000003  0.000004  0.000027  0.000000
                 **** Energy Check signals convergence ****
              ***Rediagonalizing the Fockian in SOSCF/NRSCF***

               *****************************************************
               *                     SUCCESS                       *
               *           SCF CONVERGED AFTER  10 CYCLES          *
               *****************************************************


----------------
TOTAL SCF ENERGY
----------------

Total Energy       :           -8.85309205 Eh            -240.90488 eV

Components:
Nuclear Repulsion  :           18.90366365 Eh             514.39484 eV
Electronic Energy  :          -27.75675571 Eh            -755.29972 eV
One Electron Energy:          -48.27151258 Eh           -1313.53464 eV
Two Electron Energy:           20.51475687 Eh             558.23491 eV

Virial components:
Potential Energy   :          -16.20963576 Eh            -441.08661 eV
Kinetic Energy     :            7.35654371 Eh             200.18173 eV
Virial Ratio       :            2.20343091


---------------
SCF CONVERGENCE
---------------

  Last Energy change         ...   -1.4669e-10  Tolerance :   1.0000e-09
  Last MAX-Density change    ...    1.7854e-06  Tolerance :   1.0000e-08
  Last RMS-Density change    ...    1.9421e-08  Tolerance :   1.0000e-09
  Last Orbital Gradient      ...    2.8780e-07  Tolerance :   2.0000e-06
  Last Orbital Rotation      ...    4.2923e-07  Tolerance :   2.0000e-06

             **** THE GBW FILE WAS UPDATED (mol.gbw) ****
             **** DENSITY mol.scfp WAS UPDATED ****
             **** ENERGY FILE WAS UPDATED (mol.en.tmp) ****
             **** THE GBW FILE WAS UPDATED (mol.gbw) ****
             **** DENSITY mol.scfp WAS UPDATED ****
----------------
ORBITAL ENERGIES
----------------

  NO   OCC          E(Eh)            E(eV)    Irrep 
   0   2.0000      -0.892755       -24.2931    1-Ag
   1   2.0000      -0.639236       -17.3945    1-B3u
   2   2.0000      -0.559916       -15.2361    1-B1u
   3   2.0000      -0.540437       -14.7060    1-B2u
   4   2.0000      -0.517236       -14.0747    2-Ag
   5   2.0000      -0.471420       -12.8280    1-B1g
   6   0.0000       0.025549         0.6952    3-Ag
   7   0.0000       0.033349         0.9075    2-B3u
   8   0.0000       0.033417         0.9093    2-B1u
   9   0.0000       0.041825         1.1381    2-B2u
  10   0.0000       0.047325         1.2878    2-B1g
  11   0.0000       0.051326         1.3967    1-B2g
  12   0.0000       0.054887         1.4936    4-Ag
  13   0.0000       0.060683         1.6513    5-Ag
  14   0.0000       0.079709         2.1690    3-B3u
  15   0.0000       0.087284         2.3751    3-B2u
  16   0.0000       0.093150         2.5348    3-B1u
  17   0.0000       0.101171         2.7530    2-B2g
  18   0.0000       0.109026         2.9667    1-B3g
  19   0.0000       0.110698         3.0123    6-Ag
  20   0.0000       0.111348         3.0299    3-B1g
  21   0.0000       0.119189         3.2433    4-B3u
  22   0.0000       0.146607         3.9894    7-Ag
  23   0.0000       0.154408         4.2016    5-B3u
  24   0.0000       0.156513         4.2589    1-Au
  25   0.0000       0.162300         4.4164    8-Ag
  26   0.0000       0.163685         4.4541    4-B1u
  27   0.0000       0.169620         4.6156    4-B2u
  28   0.0000       0.194094         5.2816    4-B1g
  29   0.0000       0.196678         5.3519    6-B3u
  30   0.0000       0.197577         5.3763    3-B2g
  31   0.0000       0.203660         5.5419    5-B2u
  32   0.0000       0.230983         6.2854    5-B1u
  33   0.0000       0.251992         6.8571    6-B2u
  34   0.0000       0.252231         6.8636    6-B1u
  35   0.0000       0.252238         6.8638    9-Ag
  36   0.0000       0.272994         7.4285    2-B3g
  37   0.0000       0.273195         7.4340    5-B1g
  38   0.0000       0.274819         7.4782   10-Ag
  39   0.0000       0.279362         7.6018    7-B3u
  40   0.0000       0.293161         7.9773   11-Ag
  41   0.0000       0.300130         8.1670    4-B2g
  42   0.0000       0.300862         8.1869   12-Ag
  43   0.0000       0.311295         8.4708    3-B3g
  44   0.0000       0.314665         8.5625    6-B1g
  45   0.0000       0.321242         8.7414    7-B2u
  46   0.0000       0.323487         8.8025    8-B3u
  47   0.0000       0.342906         9.3309    9-B3u
  48   0.0000       0.343509         9.3474    2-Au
  49   0.0000       0.363528         9.8921   13-Ag
  50   0.0000       0.366666         9.9775    7-B1u
  51   0.0000       0.374848        10.2001    5-B2g
  52   0.0000       0.379397        10.3239   10-B3u
  53   0.0000       0.387006        10.5310    7-B1g
  54   0.0000       0.394637        10.7386   14-Ag
  55   0.0000       0.408599        11.1185    8-B2u
  56   0.0000       0.414779        11.2867    6-B2g
  57   0.0000       0.417666        11.3653   11-B3u
  58   0.0000       0.438197        11.9239    9-B2u
  59   0.0000       0.450607        12.2616    8-B1u
  60   0.0000       0.490026        13.3343   12-B3u
  61   0.0000       0.511855        13.9283   15-Ag
  62   0.0000       0.516128        14.0445    9-B1u
  63   0.0000       0.529504        14.4085   10-B2u
  64   0.0000       0.529916        14.4198   11-B2u
  65   0.0000       0.542400        14.7595   10-B1u
  66   0.0000       0.543007        14.7760    4-B3g
  67   0.0000       0.543482        14.7889    3-Au
  68   0.0000       0.544144        14.8069    8-B1g
  69   0.0000       0.548912        14.9367   13-B3u
  70   0.0000       0.556930        15.1548   16-Ag
  71   0.0000       0.582351        15.8466    5-B3g
  72   0.0000       0.585376        15.9289   11-B1u
  73   0.0000       0.587482        15.9862   14-B3u
  74   0.0000       0.603390        16.4191    9-B1g
  75   0.0000       0.605488        16.4762   17-Ag
  76   0.0000       0.632554        17.2127   18-Ag
  77   0.0000       0.641755        17.4630    7-B2g
  78   0.0000       0.655824        17.8459    4-Au
  79   0.0000       0.667512        18.1639   10-B1g
  80   0.0000       0.670385        18.2421    8-B2g
  81   0.0000       0.685192        18.6450   15-B3u
  82   0.0000       0.710714        19.3395    6-B3g
  83   0.0000       0.717697        19.5295   12-B2u
  84   0.0000       0.732299        19.9269   11-B1g
  85   0.0000       0.734223        19.9792   12-B1u
  86   0.0000       0.769654        20.9434   19-Ag
  87   0.0000       0.785664        21.3790   16-B3u
  88   0.0000       0.789505        21.4835   20-Ag
  89   0.0000       0.790678        21.5154    5-Au
  90   0.0000       0.791446        21.5363    9-B2g
  91   0.0000       0.827750        22.5242   17-B3u
  92   0.0000       0.831309        22.6211   13-B2u
  93   0.0000       0.846527        23.0352   10-B2g
  94   0.0000       0.864756        23.5312   21-Ag
  95   0.0000       0.865912        23.5627   14-B2u
  96   0.0000       0.876257        23.8442   11-B2g
  97   0.0000       0.887554        24.1516   18-B3u
  98   0.0000       0.905821        24.6487   15-B2u
  99   0.0000       0.908190        24.7131   12-B1g
 100   0.0000       0.915473        24.9113   22-Ag
 101   0.0000       0.916963        24.9518   13-B1u
 102   0.0000       0.920668        25.0526   23-Ag
 103   0.0000       0.927537        25.2396    7-B3g
 104   0.0000       0.945696        25.7337   13-B1g
 105   0.0000       0.946281        25.7496   14-B1u
 106   0.0000       0.964247        26.2385   14-B1g
 107   0.0000       0.970674        26.4134    8-B3g
 108   0.0000       0.971837        26.4450   24-Ag
 109   0.0000       0.983356        26.7585   12-B2g
 110   0.0000       0.985858        26.8266   19-B3u
 111   0.0000       0.997219        27.1357   16-B2u
 112   0.0000       1.004321        27.3290   15-B1u
 113   0.0000       1.005252        27.3543   25-Ag
 114   0.0000       1.007253        27.4087    6-Au
 115   0.0000       1.022899        27.8345   17-B2u
 116   0.0000       1.031751        28.0754   20-B3u
 117   0.0000       1.111813        30.2540   16-B1u
 118   0.0000       1.124673        30.6039   21-B3u
 119   0.0000       1.128262        30.7016   22-B3u
 120   0.0000       1.134751        30.8781   17-B1u
 121   0.0000       1.139970        31.0202   15-B1g
 122   0.0000       1.142794        31.0970    9-B3g
 123   0.0000       1.174642        31.9636    7-Au
 124   0.0000       1.175579        31.9891   26-Ag
 125   0.0000       1.197306        32.5803   16-B1g
 126   0.0000       1.198165        32.6037   18-B2u
 127   0.0000       1.251722        34.0611   17-B1g
 128   0.0000       1.258346        34.2413   27-Ag
 129   0.0000       1.259954        34.2851   13-B2g
 130   0.0000       1.285669        34.9848   10-B3g
 131   0.0000       1.332144        36.2495   19-B2u
 132   0.0000       1.332872        36.2693    8-Au
 133   0.0000       1.334780        36.3212   23-B3u
 134   0.0000       1.340216        36.4691   18-B1u
 135   0.0000       1.421403        38.6783   28-Ag
 136   0.0000       1.448996        39.4292   24-B3u
 137   0.0000       1.472713        40.0746   14-B2g
 138   0.0000       1.475219        40.1427   20-B2u
 139   0.0000       1.502157        40.8758   11-B3g
 140   0.0000       1.508799        41.0565   19-B1u
 141   0.0000       1.515356        41.2349   25-B3u
 142   0.0000       1.521379        41.3988   15-B2g
 143   0.0000       1.541736        41.9528   21-B2u
 144   0.0000       1.542638        41.9773   29-Ag
 145   0.0000       1.559056        42.4241   26-B3u
 146   0.0000       1.567649        42.6579   18-B1g
 147   0.0000       1.570994        42.7489    9-Au
 148   0.0000       1.576135        42.8888   30-Ag
 149   0.0000       1.624597        44.2075   31-Ag
 150   0.0000       1.636078        44.5200   20-B1u
 151   0.0000       1.645866        44.7863   16-B2g
 152   0.0000       1.681157        45.7466   32-Ag
 153   0.0000       1.691989        46.0414   27-B3u
 154   0.0000       1.707665        46.4679   19-B1g
 155   0.0000       1.727322        47.0028   22-B2u
 156   0.0000       1.757264        47.8176   20-B1g
 157   0.0000       1.759228        47.8710   17-B2g
 158   0.0000       1.759428        47.8765   10-Au
 159   0.0000       1.774056        48.2745   33-Ag
 160   0.0000       1.776427        48.3390   23-B2u
 161   0.0000       1.785920        48.5974   24-B2u
 162   0.0000       1.790576        48.7240   21-B1u
 163   0.0000       1.790991        48.7353   12-B3g
 164   0.0000       1.865125        50.7526   13-B3g
 165   0.0000       1.868575        50.8465   28-B3u
 166   0.0000       1.869200        50.8635   22-B1u
 167   0.0000       1.870657        50.9032   34-Ag
 168   0.0000       1.909606        51.9630   29-B3u
 169   0.0000       1.922348        52.3098   11-Au
 170   0.0000       1.936868        52.7049   21-B1g
 171   0.0000       1.964990        53.4701   18-B2g
 172   0.0000       1.966458        53.5100   14-B3g
 173   0.0000       1.979727        53.8711   25-B2u
 174   0.0000       1.982742        53.9532   23-B1u
 175   0.0000       1.989198        54.1288   30-B3u
 176   0.0000       2.004259        54.5387   35-Ag
 177   0.0000       2.033873        55.3445   22-B1g
 178   0.0000       2.044013        55.6204   24-B1u
 179   0.0000       2.068807        56.2951   36-Ag
 180   0.0000       2.080269        56.6070   31-B3u
 181   0.0000       2.081235        56.6333   26-B2u
 182   0.0000       2.096483        57.0482   12-Au
 183   0.0000       2.096763        57.0558   23-B1g
 184   0.0000       2.113738        57.5177   15-B3g
 185   0.0000       2.119197        57.6663   25-B1u
 186   0.0000       2.138274        58.1854   19-B2g
 187   0.0000       2.150139        58.5083   13-Au
 188   0.0000       2.150164        58.5089   37-Ag
 189   0.0000       2.160226        58.7827   32-B3u
 190   0.0000       2.189246        59.5724   20-B2g
 191   0.0000       2.205573        60.0167   26-B1u
 192   0.0000       2.208420        60.0942   24-B1g
 193   0.0000       2.241234        60.9871   33-B3u
 194   0.0000       2.249472        61.2112   16-B3g
 195   0.0000       2.259132        61.4741   27-B2u
 196   0.0000       2.273089        61.8539   38-Ag
 197   0.0000       2.284780        62.1720   28-B2u
 198   0.0000       2.308591        62.8200   25-B1g
 199   0.0000       2.334531        63.5258   39-Ag
 200   0.0000       2.352157        64.0054   40-Ag
 201   0.0000       2.383958        64.8708   34-B3u
 202   0.0000       2.395812        65.1934   14-Au
 203   0.0000       2.409336        65.5614   21-B2g
 204   0.0000       2.415678        65.7339   17-B3g
 205   0.0000       2.418788        65.8186   27-B1u
 206   0.0000       2.428476        66.0822   41-Ag
 207   0.0000       2.435116        66.2629   26-B1g
 208   0.0000       2.451497        66.7086   29-B2u
 209   0.0000       2.455831        66.8265   18-B3g
 210   0.0000       2.482385        67.5491   28-B1u
 211   0.0000       2.499063        68.0030   42-Ag
 212   0.0000       2.500808        68.0505   35-B3u
 213   0.0000       2.509081        68.2756   22-B2g
 214   0.0000       2.527322        68.7719   23-B2g
 215   0.0000       2.529334        68.8267   27-B1g
 216   0.0000       2.593809        70.5811   36-B3u
 217   0.0000       2.637208        71.7621   30-B2u
 218   0.0000       2.644535        71.9615   15-Au
 219   0.0000       2.690529        73.2130   24-B2g
 220   0.0000       2.715566        73.8943   37-B3u
 221   0.0000       2.744285        74.6758   31-B2u
 222   0.0000       2.747591        74.7658   43-Ag
 223   0.0000       2.748916        74.8018   28-B1g
 224   0.0000       2.792094        75.9767   29-B1u
 225   0.0000       2.832550        77.0776   16-Au
 226   0.0000       2.863796        77.9279   38-B3u
 227   0.0000       2.867851        78.0382   44-Ag
 228   0.0000       2.870136        78.1004   30-B1u
 229   0.0000       2.884231        78.4839   25-B2g
 230   0.0000       2.908400        79.1416   19-B3g
 231   0.0000       2.940806        80.0234   32-B2u
 232   0.0000       3.003955        81.7418   33-B2u
 233   0.0000       3.042516        82.7911   45-Ag
 234   0.0000       3.047382        82.9235   39-B3u
 235   0.0000       3.064356        83.3854   29-B1g
 236   0.0000       3.138891        85.4136   20-B3g
 237   0.0000       3.171393        86.2980   46-Ag
 238   0.0000       3.191459        86.8440   30-B1g
 239   0.0000       3.220072        87.6226   40-B3u
 240   0.0000       3.270534        88.9958   41-B3u
 241   0.0000       3.307745        90.0083   34-B2u
 242   0.0000       3.312146        90.1281   17-Au
 243   0.0000       3.341008        90.9135   31-B1u
 244   0.0000       3.393516        92.3423   47-Ag
 245   0.0000       3.402020        92.5737   26-B2g
 246   0.0000       3.426464        93.2388   21-B3g
 247   0.0000       3.427545        93.2682   35-B2u
 248   0.0000       3.438127        93.5562   22-B3g
 249   0.0000       3.448818        93.8471   31-B1g
 250   0.0000       3.453338        93.9701   32-B1u
 251   0.0000       3.516421        95.6867   36-B2u
 252   0.0000       3.525234        95.9265   48-Ag
 253   0.0000       3.536487        96.2327   18-Au
 254   0.0000       3.539027        96.3018   49-Ag
 255   0.0000       3.593315        97.7791   32-B1g
 256   0.0000       3.614011        98.3422   33-B1u
 257   0.0000       3.623432        98.5986   42-B3u
 258   0.0000       3.651897        99.3732   27-B2g
 259   0.0000       3.688145       100.3595   34-B1u
 260   0.0000       3.700492       100.6955   37-B2u
 261   0.0000       3.713117       101.0391   50-Ag
 262   0.0000       3.724619       101.3520   28-B2g
 263   0.0000       3.730962       101.5246   43-B3u
 264   0.0000       3.749107       102.0184   35-B1u
 265   0.0000       3.762488       102.3825   44-B3u
 266   0.0000       3.778269       102.8119   51-Ag
 267   0.0000       3.779069       102.8337   45-B3u
 268   0.0000       3.824939       104.0819   38-B2u
 269   0.0000       3.828276       104.1727   29-B2g
 270   0.0000       3.838532       104.4518   23-B3g
 271   0.0000       3.854942       104.8983   33-B1g
 272   0.0000       3.887998       105.7978   36-B1u
 273   0.0000       3.935412       107.0880   52-Ag
 274   0.0000       3.950060       107.4866   19-Au
 275   0.0000       3.972204       108.0892   34-B1g
 276   0.0000       4.019529       109.3769   46-B3u
 277   0.0000       4.026208       109.5587   24-B3g
 278   0.0000       4.044532       110.0573   39-B2u
 279   0.0000       4.127913       112.3262   30-B2g
 280   0.0000       4.132801       112.4592   53-Ag
 281   0.0000       4.135195       112.5244   35-B1g
 282   0.0000       4.205739       114.4440   20-Au
 283   0.0000       4.214035       114.6697   36-B1g
 284   0.0000       4.322665       117.6257   54-Ag
 285   0.0000       4.354731       118.4983   47-B3u
 286   0.0000       4.421735       120.3215   48-B3u
 287   0.0000       4.435002       120.6825   40-B2u
 288   0.0000       4.514248       122.8389   31-B2g
 289   0.0000       4.539505       123.5262   55-Ag
 290   0.0000       4.580974       124.6546   41-B2u
 291   0.0000       4.582420       124.6940   37-B1u
 292   0.0000       4.641323       126.2968   37-B1g
 293   0.0000       4.701227       127.9269   32-B2g
 294   0.0000       4.736948       128.8989   49-B3u
 295   0.0000       4.747866       129.1960   42-B2u
 296   0.0000       4.776819       129.9839   21-Au
 297   0.0000       4.826217       131.3280   56-Ag
 298   0.0000       4.832995       131.5125   25-B3g
 299   0.0000       4.858416       132.2042   26-B3g
 300   0.0000       4.931600       134.1957   38-B1u
 301   0.0000       4.979772       135.5065   50-B3u
 302   0.0000       5.006285       136.2279   57-Ag
 303   0.0000       5.055789       137.5750   22-Au
 304   0.0000       5.104805       138.9088   33-B2g
 305   0.0000       5.105024       138.9148   51-B3u
 306   0.0000       5.110674       139.0685   38-B1g
 307   0.0000       5.155319       140.2834   27-B3g
 308   0.0000       5.230559       142.3308   58-Ag
 309   0.0000       5.269044       143.3780   39-B1u
 310   0.0000       5.282955       143.7565   23-Au
 311   0.0000       5.293042       144.0310   43-B2u
 312   0.0000       5.479283       149.0989   59-Ag
 313   0.0000       5.491216       149.4236   39-B1g
 314   0.0000       5.536527       150.6566   40-B1u
 315   0.0000       5.538107       150.6996   52-B3u
 316   0.0000       5.550933       151.0486   44-B2u
 317   0.0000       5.608320       152.6101   40-B1g
 318   0.0000       5.610495       152.6693   41-B1u
 319   0.0000       5.628061       153.1473   34-B2g
 320   0.0000       5.639152       153.4491   28-B3g
 321   0.0000       5.683690       154.6611   24-Au
 322   0.0000       5.713732       155.4785   45-B2u
 323   0.0000       5.765645       156.8912   60-Ag
 324   0.0000       5.774775       157.1396   35-B2g
 325   0.0000       5.881360       160.0399   42-B1u
 326   0.0000       5.927445       161.2940   61-Ag
 327   0.0000       5.947517       161.8402   53-B3u
 328   0.0000       6.121695       166.5798   41-B1g
 329   0.0000       6.127149       166.7282   46-B2u
 330   0.0000       6.143752       167.1800   54-B3u
 331   0.0000       6.317678       171.9128   36-B2g
 332   0.0000       6.444425       175.3617   55-B3u
 333   0.0000       6.462458       175.8524   62-Ag
 334   0.0000       6.562514       178.5751   56-B3u
 335   0.0000       6.586796       179.2358   42-B1g
 336   0.0000       6.962920       189.4707   29-B3g
 337   0.0000       6.976083       189.8289   47-B2u
 338   0.0000       7.043644       191.6673   25-Au
 339   0.0000       7.081803       192.7057   43-B1u
 340   0.0000       7.119561       193.7331   37-B2g
 341   0.0000       7.137369       194.2177   43-B1g
 342   0.0000       7.157267       194.7591   63-Ag
 343   0.0000       7.220755       196.4867   57-B3u
 344   0.0000       7.301620       198.6872   64-Ag
 345   0.0000       7.339503       199.7180   44-B1u
 346   0.0000       7.411248       201.6703   38-B2g
 347   0.0000       7.478203       203.4922   48-B2u
 348   0.0000       7.518558       204.5904   58-B3u
 349   0.0000       7.610002       207.0787   30-B3g
 350   0.0000       7.625010       207.4871   59-B3u
 351   0.0000       7.637162       207.8178   31-B3g
 352   0.0000       7.657041       208.3587   49-B2u
 353   0.0000       7.675690       208.8661   65-Ag
 354   0.0000       7.782427       211.7706   39-B2g
 355   0.0000       7.914718       215.3704   44-B1g
 356   0.0000       7.922138       215.5723   66-Ag
 357   0.0000       7.934650       215.9128   26-Au
 358   0.0000       7.967248       216.7998   45-B1u
 359   0.0000       7.967487       216.8063   50-B2u
 360   0.0000       8.141198       221.5333   67-Ag
 361   0.0000       8.153385       221.8649   46-B1u
 362   0.0000       8.202889       223.2120   60-B3u
 363   0.0000       8.216433       223.5805   51-B2u
 364   0.0000       8.247154       224.4165   45-B1g
 365   0.0000       8.342614       227.0141   32-B3g
 366   0.0000       8.358971       227.4592   27-Au
 367   0.0000       8.369993       227.7591   40-B2g
 368   0.0000       8.407229       228.7723   46-B1g
 369   0.0000       8.411646       228.8925   68-Ag
 370   0.0000       8.431292       229.4271   52-B2u
 371   0.0000       8.441988       229.7182   33-B3g
 372   0.0000       8.472508       230.5487   61-B3u
 373   0.0000       8.476460       230.6562   69-Ag
 374   0.0000       8.485391       230.8992   47-B1u
 375   0.0000       8.549864       232.6536   62-B3u
 376   0.0000       8.655119       235.5178   28-Au
 377   0.0000       8.743303       237.9174   70-Ag
 378   0.0000       8.748052       238.0466   47-B1g
 379   0.0000       8.775608       238.7964   53-B2u
 380   0.0000       8.799755       239.4535   63-B3u
 381   0.0000       8.844525       240.6718   41-B2g
 382   0.0000       8.848593       240.7825   48-B1u
 383   0.0000       8.948744       243.5077   71-Ag
 384   0.0000       8.964988       243.9497   64-B3u
 385   0.0000       9.006610       245.0823   48-B1g
 386   0.0000       9.012979       245.2556   34-B3g
 387   0.0000       9.089468       247.3370   29-Au
 388   0.0000       9.190592       250.0887   49-B1u
 389   0.0000       9.197546       250.2780   35-B3g
 390   0.0000       9.234803       251.2918   54-B2u
 391   0.0000       9.302213       253.1261   72-Ag
 392   0.0000       9.304894       253.1990   42-B2g
 393   0.0000       9.309188       253.3159   49-B1g
 394   0.0000       9.463177       257.5061   55-B2u
 395   0.0000       9.481806       258.0131   50-B1u
 396   0.0000       9.542542       259.6658   36-B3g
 397   0.0000       9.578143       260.6345   65-B3u
 398   0.0000       9.580423       260.6966   43-B2g
 399   0.0000       9.621412       261.8119   56-B2u
 400   0.0000       9.645542       262.4685   30-Au
 401   0.0000       9.663354       262.9532   50-B1g
 402   0.0000       9.699603       263.9396   73-Ag
 403   0.0000       9.705140       264.0903   51-B1u
 404   0.0000       9.799237       266.6508   51-B1g
 405   0.0000       9.819270       267.1959   74-Ag
 406   0.0000       9.835765       267.6448   57-B2u
 407   0.0000       9.860658       268.3222   66-B3u
 408   0.0000       9.900436       269.4046   52-B1u
 409   0.0000       9.994334       271.9596   44-B2g
 410   0.0000      10.012955       272.4664   31-Au
 411   0.0000      10.104133       274.9474   53-B1u
 412   0.0000      10.152209       276.2556   67-B3u
 413   0.0000      10.165858       276.6270   37-B3g
 414   0.0000      10.221553       278.1426   75-Ag
 415   0.0000      10.293429       280.0984   76-Ag
 416   0.0000      10.364511       282.0327   45-B2g
 417   0.0000      10.390351       282.7358   52-B1g
 418   0.0000      10.435460       283.9633   58-B2u
 419   0.0000      10.506116       285.8860   32-Au
 420   0.0000      10.533465       286.6302   77-Ag
 421   0.0000      10.593007       288.2504   38-B3g
 422   0.0000      10.706059       291.3267   68-B3u
 423   0.0000      10.781536       293.3805   53-B1g
 424   0.0000      10.801816       293.9324   59-B2u
 425   0.0000      10.885601       296.2123   69-B3u
 426   0.0000      10.998796       299.2924   78-Ag
 427   0.0000      11.021087       299.8990   46-B2g
 428   0.0000      11.162329       303.7424   54-B1u
 429   0.0000      11.309246       307.7402   70-B3u
 430   0.0000      11.638453       316.6984   60-B2u
 431   0.0000      11.867755       322.9380   79-Ag
 432   0.0000      11.992343       326.3282   54-B1g
 433   0.0000      12.000105       326.5395   71-B3u

                    ********************************
                    * MULLIKEN POPULATION ANALYSIS *
                    ********************************

-----------------------
MULLIKEN ATOMIC CHARGES
-----------------------
   0 B :    0.303246
   1 B :    0.303246
   2 H :   -0.056403
   3 H :   -0.056403
   4 H :   -0.123421
   5 H :   -0.123421
   6 H :   -0.123421
   7 H :   -0.123421
Sum of atomic charges:    0.0000000

--------------------------------
MULLIKEN REDUCED ORBITAL CHARGES
--------------------------------
  0 B s       :     0.655057  s :     0.655057
      pz      :     0.368453  p :     1.968284
      px      :     0.680618
      py      :     0.919213
      dz2     :     0.000872  d :     0.056760
      dxz     :     0.044442
      dyz     :     0.000000
      dx2y2   :     0.033583
      dxy     :    -0.022137
      f0      :     0.001501  f :     0.012087
      f+1     :     0.003055
      f-1     :    -0.000150
      f+2     :     0.005140
      f-2     :    -0.000000
      f+3     :     0.004975
      f-3     :    -0.002435
      g0      :    -0.000001  g :     0.004567
      g+1     :    -0.000016
      g-1     :    -0.000000
      g+2     :     0.001026
      g-2     :    -0.000418
      g+3     :     0.001238
      g-3     :     0.000000
      g+4     :     0.000192
      g-4     :     0.002547
  1 B s       :     0.655057  s :     0.655057
      pz      :     0.368453  p :     1.968284
      px      :     0.680618
      py      :     0.919213
      dz2     :     0.000872  d :     0.056760
      dxz     :     0.044442
      dyz     :     0.000000
      dx2y2   :     0.033583
      dxy     :    -0.022137
      f0      :     0.001501  f :     0.012087
      f+1     :     0.003055
      f-1     :    -0.000150
      f+2     :     0.005140
      f-2     :    -0.000000
      f+3     :     0.004975
      f-3     :    -0.002435
      g0      :    -0.000001  g :     0.004567
      g+1     :    -0.000016
      g-1     :    -0.000000
      g+2     :     0.001026
      g-2     :    -0.000418
      g+3     :     0.001238
      g-3     :     0.000000
      g+4     :     0.000192
      g-4     :     0.002547
  2 H s       :     0.996799  s :     0.996799
      pz      :     0.030717  p :     0.051459
      px      :     0.012307
      py      :     0.008436
      dz2     :     0.002368  d :     0.006975
      dxz     :    -0.000193
      dyz     :     0.004052
      dx2y2   :    -0.000766
      dxy     :     0.001515
      f0      :     0.000512  f :     0.001170
      f+1     :     0.000079
      f-1     :    -0.000027
      f+2     :    -0.000005
      f-2     :     0.000123
      f+3     :    -0.000011
      f-3     :     0.000498
  3 H s       :     0.996799  s :     0.996799
      pz      :     0.030717  p :     0.051459
      px      :     0.012307
      py      :     0.008436
      dz2     :     0.002368  d :     0.006975
      dxz     :    -0.000193
      dyz     :     0.004052
      dx2y2   :    -0.000766
      dxy     :     0.001515
      f0      :     0.000512  f :     0.001170
      f+1     :     0.000079
      f-1     :    -0.000027
      f+2     :    -0.000005
      f-2     :     0.000123
      f+3     :    -0.000011
      f-3     :     0.000498
  4 H s       :     1.092658  s :     1.092658
      pz      :     0.001438  p :     0.029272
      px      :     0.007675
      py      :     0.020159
      dz2     :    -0.000733  d :     0.000945
      dxz     :     0.001262
      dyz     :     0.000587
      dx2y2   :    -0.000175
      dxy     :     0.000004
      f0      :     0.000182  f :     0.000547
      f+1     :     0.000004
      f-1     :    -0.000007
      f+2     :     0.000009
      f-2     :     0.000084
      f+3     :     0.000090
      f-3     :     0.000185
  5 H s       :     1.092658  s :     1.092658
      pz      :     0.001438  p :     0.029272
      px      :     0.007675
      py      :     0.020159
      dz2     :    -0.000733  d :     0.000945
      dxz     :     0.001262
      dyz     :     0.000587
      dx2y2   :    -0.000175
      dxy     :     0.000004
      f0      :     0.000182  f :     0.000547
      f+1     :     0.000004
      f-1     :    -0.000007
      f+2     :     0.000009
      f-2     :     0.000084
      f+3     :     0.000090
      f-3     :     0.000185
  6 H s       :     1.092658  s :     1.092658
      pz      :     0.001438  p :     0.029272
      px      :     0.007675
      py      :     0.020159
      dz2     :    -0.000733  d :     0.000945
      dxz     :     0.001262
      dyz     :     0.000587
      dx2y2   :    -0.000175
      dxy     :     0.000004
      f0      :     0.000182  f :     0.000547
      f+1     :     0.000004
      f-1     :    -0.000007
      f+2     :     0.000009
      f-2     :     0.000084
      f+3     :     0.000090
      f-3     :     0.000185
  7 H s       :     1.092658  s :     1.092658
      pz      :     0.001438  p :     0.029272
      px      :     0.007675
      py      :     0.020159
      dz2     :    -0.000733  d :     0.000945
      dxz     :     0.001262
      dyz     :     0.000587
      dx2y2   :    -0.000175
      dxy     :     0.000004
      f0      :     0.000182  f :     0.000547
      f+1     :     0.000004
      f-1     :    -0.000007
      f+2     :     0.000009
      f-2     :     0.000084
      f+3     :     0.000090
      f-3     :     0.000185


                     *******************************
                     * LOEWDIN POPULATION ANALYSIS *
                     *******************************

----------------------
LOEWDIN ATOMIC CHARGES
----------------------
   0 B :    0.346725
   1 B :    0.346725
   2 H :   -0.218175
   3 H :   -0.218175
   4 H :   -0.064275
   5 H :   -0.064275
   6 H :   -0.064275
   7 H :   -0.064275

-------------------------------
LOEWDIN REDUCED ORBITAL CHARGES
-------------------------------
  0 B s       :     0.422941  s :     0.422941
      pz      :     0.328652  p :     1.616667
      px      :     0.581951
      py      :     0.706064
      dz2     :     0.045706  d :     0.387188
      dxz     :     0.115918
      dyz     :    -0.000000
      dx2y2   :     0.086994
      dxy     :     0.138570
      f0      :     0.004277  f :     0.166843
      f+1     :     0.026898
      f-1     :     0.015129
      f+2     :     0.037915
      f-2     :     0.000000
      f+3     :     0.030556
      f-3     :     0.052069
      g0      :     0.005127  g :     0.059635
      g+1     :     0.000459
      g-1     :     0.000000
      g+2     :     0.007670
      g-2     :     0.007389
      g+3     :     0.011105
      g-3     :    -0.000000
      g+4     :     0.003936
      g-4     :     0.023949
  1 B s       :     0.422941  s :     0.422941
      pz      :     0.328652  p :     1.616667
      px      :     0.581951
      py      :     0.706064
      dz2     :     0.045706  d :     0.387188
      dxz     :     0.115918
      dyz     :     0.000000
      dx2y2   :     0.086994
      dxy     :     0.138570
      f0      :     0.004277  f :     0.166843
      f+1     :     0.026898
      f-1     :     0.015129
      f+2     :     0.037915
      f-2     :    -0.000000
      f+3     :     0.030556
      f-3     :     0.052069
      g0      :     0.005127  g :     0.059635
      g+1     :     0.000459
      g-1     :     0.000000
      g+2     :     0.007670
      g-2     :     0.007389
      g+3     :     0.011105
      g-3     :     0.000000
      g+4     :     0.003936
      g-4     :     0.023949
  2 H s       :     0.598325  s :     0.598325
      pz      :     0.093935  p :     0.268356
      px      :     0.105769
      py      :     0.068653
      dz2     :     0.069486  d :     0.256166
      dxz     :     0.048396
      dyz     :     0.038694
      dx2y2   :     0.016480
      dxy     :     0.083110
      f0      :     0.035056  f :     0.095328
      f+1     :     0.000010
      f-1     :     0.002637
      f+2     :     0.005374
      f-2     :     0.038000
      f+3     :     0.000021
      f-3     :     0.014229
  3 H s       :     0.598325  s :     0.598325
      pz      :     0.093935  p :     0.268356
      px      :     0.105769
      py      :     0.068653
      dz2     :     0.069486  d :     0.256166
      dxz     :     0.048396
      dyz     :     0.038694
      dx2y2   :     0.016480
      dxy     :     0.083110
      f0      :     0.035056  f :     0.095328
      f+1     :     0.000010
      f-1     :     0.002637
      f+2     :     0.005374
      f-2     :     0.038000
      f+3     :     0.000021
      f-3     :     0.014229
  4 H s       :     0.747104  s :     0.747104
      pz      :     0.022825  p :     0.146888
      px      :     0.044959
      py      :     0.079105
      dz2     :     0.010670  d :     0.125763
      dxz     :     0.022914
      dyz     :     0.015603
      dx2y2   :     0.047633
      dxy     :     0.028943
      f0      :     0.005819  f :     0.044519
      f+1     :     0.000855
      f-1     :     0.002990
      f+2     :     0.000053
      f-2     :     0.009823
      f+3     :     0.001435
      f-3     :     0.023544
  5 H s       :     0.747104  s :     0.747104
      pz      :     0.022825  p :     0.146888
      px      :     0.044959
      py      :     0.079105
      dz2     :     0.010670  d :     0.125763
      dxz     :     0.022914
      dyz     :     0.015603
      dx2y2   :     0.047633
      dxy     :     0.028943
      f0      :     0.005819  f :     0.044519
      f+1     :     0.000855
      f-1     :     0.002990
      f+2     :     0.000053
      f-2     :     0.009823
      f+3     :     0.001435
      f-3     :     0.023544
  6 H s       :     0.747104  s :     0.747104
      pz      :     0.022825  p :     0.146888
      px      :     0.044959
      py      :     0.079105
      dz2     :     0.010670  d :     0.125763
      dxz     :     0.022914
      dyz     :     0.015603
      dx2y2   :     0.047633
      dxy     :     0.028943
      f0      :     0.005819  f :     0.044519
      f+1     :     0.000855
      f-1     :     0.002990
      f+2     :     0.000053
      f-2     :     0.009823
      f+3     :     0.001435
      f-3     :     0.023544
  7 H s       :     0.747104  s :     0.747104
      pz      :     0.022825  p :     0.146888
      px      :     0.044959
      py      :     0.079105
      dz2     :     0.010670  d :     0.125763
      dxz     :     0.022914
      dyz     :     0.015603
      dx2y2   :     0.047633
      dxy     :     0.028943
      f0      :     0.005819  f :     0.044519
      f+1     :     0.000855
      f-1     :     0.002990
      f+2     :     0.000053
      f-2     :     0.009823
      f+3     :     0.001435
      f-3     :     0.023544


                      *****************************
                      * MAYER POPULATION ANALYSIS *
                      *****************************

  NA   - Mulliken gross atomic population
  ZA   - Total nuclear charge
  QA   - Mulliken gross atomic charge
  VA   - Mayer's total valence
  BVA  - Mayer's bonded valence
  FA   - Mayer's free valence

  ATOM       NA         ZA         QA         VA         BVA        FA
  0 B      2.6968     3.0000     0.3032     3.3328     3.3328     0.0000
  1 B      2.6968     3.0000     0.3032     3.3328     3.3328     0.0000
  2 H      1.0564     1.0000    -0.0564     1.2482     1.2482     0.0000
  3 H      1.0564     1.0000    -0.0564     1.2482     1.2482     0.0000
  4 H      1.1234     1.0000    -0.1234     1.1191     1.1191     0.0000
  5 H      1.1234     1.0000    -0.1234     1.1191     1.1191     0.0000
  6 H      1.1234     1.0000    -0.1234     1.1191     1.1191     0.0000
  7 H      1.1234     1.0000    -0.1234     1.1191     1.1191    -0.0000

  Mayer bond orders larger than 0.100000
B(  0-B ,  1-B ) :   0.4931 B(  0-B ,  2-H ) :   0.4963 B(  0-B ,  3-H ) :   0.4963 
B(  0-B ,  4-H ) :   0.9542 B(  0-B ,  5-H ) :   0.9542 B(  1-B ,  2-H ) :   0.4963 
B(  1-B ,  3-H ) :   0.4963 B(  1-B ,  6-H ) :   0.9542 B(  1-B ,  7-H ) :   0.9542 


-------
TIMINGS
-------

Total SCF time: 0 days 0 hours 14 min 32 sec 

Total time                  ....     872.469 sec
Sum of individual times     ....     871.305 sec  ( 99.9%)

Fock matrix formation       ....     868.111 sec  ( 99.5%)
Diagonalization             ....       0.654 sec  (  0.1%)
Density matrix formation    ....       0.019 sec  (  0.0%)
Population analysis         ....       0.143 sec  (  0.0%)
Initial guess               ....       1.760 sec  (  0.2%)
Orbital Transformation      ....       0.000 sec  (  0.0%)
Orbital Orthonormalization  ....       0.000 sec  (  0.0%)
DIIS solution               ....       0.270 sec  (  0.0%)
SOSCF solution              ....       0.285 sec  (  0.0%)

Maximum memory used throughout the entire SCF-calculation: 251.7 MB

-------------------------   --------------------
FINAL SINGLE POINT ENERGY        -8.853092052812
-------------------------   --------------------


                            ***************************************
                            *     ORCA property calculations      *
                            ***************************************

                                    ---------------------
                                    Active property flags
                                    ---------------------
   (+) Dipole Moment


------------------------------------------------------------------------------
                       ORCA ELECTRIC PROPERTIES CALCULATION
------------------------------------------------------------------------------

Dipole Moment Calculation                       ... on
Quadrupole Moment Calculation                   ... off
Polarizability Calculation                      ... off
GBWName                                         ... mol.gbw
Electron density                                ... mol.scfp
The origin for moment calculation is the CENTER OF MASS  = ( 0.000000,  0.000000  0.000000)

-------------
DIPOLE MOMENT
-------------
                                X             Y             Z
Electronic contribution:      0.00000      -0.00000       0.00000
Nuclear contribution   :      0.00000       0.00000       0.00000
                        -----------------------------------------
Total Dipole Moment    :      0.00000      -0.00000       0.00000
                        -----------------------------------------
Magnitude (a.u.)       :      0.00000
Magnitude (Debye)      :      0.00000



--------------------
Rotational spectrum 
--------------------
 
Rotational constants in cm-1:     2.686270     0.621537     0.570221 
Rotational constants in MHz : 80532.344938 18633.202205 17094.799315 

 Dipole components along the rotational axes: 
x,y,z [a.u.] :     0.000000    -0.000000     0.000000 
x,y,z [Debye]:     0.000000    -0.000000     0.000000 

 

Timings for individual modules:

Sum of individual times         ...      884.147 sec (=  14.736 min)
GTO integral calculation        ...       11.187 sec (=   0.186 min)   1.3 %
SCF iterations                  ...      872.960 sec (=  14.549 min)  98.7 %
                             ****ORCA TERMINATED NORMALLY****
TOTAL RUN TIME: 0 days 0 hours 14 minutes 45 seconds 349 msec
