[Molden Format]
[Atoms] (Angs)
  H      1    1      0.00000000      0.00000000      0.00000000
[GTO]
1    0
S    3    1.000000
   8.26400000E+01    2.00600000E-03 
   1.24100000E+01    1.53430000E-02 
   2.82400000E+00    7.55790000E-02 
S    1    1.000000
   7.97700000E-01    1.00000000E+00 
S    1    1.000000
   2.58100000E-01    1.00000000E+00 
S    1    1.000000
   8.98900000E-02    1.00000000E+00 
P    1    1.000000
   2.29200000E+00    1.00000000E+00 
P    1    1.000000
   8.38000000E-01    1.00000000E+00 
P    1    1.000000
   2.92000000E-01    1.00000000E+00 
D    1    1.000000
   2.06200000E+00    1.00000000E+00 
D    1    1.000000
   6.62000000E-01    1.00000000E+00 
F    1    1.000000
   1.39700000E+00    1.00000000E+00 

[MO]
Sym=X
Ene= -0.322176
Spin=Alpha
Occup=1
     1    9.244389637327e-02
     2    2.617880220206e-01
     3    4.573485003253e-01
     4    3.343687180581e-01
     5   -2.923802234569e-18
     6    7.122773679411e-16
     7   -7.479195591076e-17
     8    2.945150214719e-18
     9   -6.475739072905e-16
    10    2.022221582359e-17
    11    8.794326810994e-19
    12    2.200481398722e-16
    13    6.986844408285e-18
    14    3.293333682845e-11
    15   -2.107835886582e-17
    16   -5.395444977304e-18
    17    6.338094587597e-12
    18    2.295308783697e-17
    19   -1.833274252892e-10
    20    8.154034648157e-17
    21    6.189552530444e-17
    22   -3.528169594932e-11
    23   -1.388816293022e-16
    24    2.475451916082e-19
    25    2.493587826486e-17
    26   -6.092923448835e-18
    27   -1.098921682874e-18
    28   -1.387771760402e-17
    29   -8.922182277368e-20
    30   -1.915099577621e-17
Sym=X
Ene= 0.182253
Spin=Alpha
Occup=0
     1   -8.520528962612e-02
     2   -1.566830195313e-02
     3   -1.413362748841e+00
     4    1.691058091632e+00
     5    1.528519814635e-18
     6    8.935823106742e-17
     7    1.083240353610e-17
     8   -1.968785856222e-18
     9    9.122626828018e-17
    10   -3.063333985966e-17
    11   -1.426962378920e-18
    12   -1.971549654793e-16
    13    2.198278505607e-16
    14    1.775459231147e-11
    15    8.114762605212e-17
    16    3.073624150789e-17
    17    3.416873365766e-12
    18    1.656858860605e-17
    19   -3.551280567462e-11
    20   -4.945790593924e-16
    21   -3.352424366890e-16
    22   -6.834404700330e-12
    23   -3.824142000287e-16
    24    1.125712624863e-17
    25   -1.328098195613e-19
    26   -8.220418089977e-17
    27   -3.934427543267e-17
    28   -3.989864110804e-17
    29    4.579239782405e-21
    30    6.545443462096e-17
Sym=X
Ene= 0.393947
Spin=Alpha
Occup=0
     1    1.448187400691e-17
     2   -1.490628665967e-17
     3    2.910291367445e-16
     4   -3.210759855114e-16
     5   -1.789275591854e-16
     6   -1.303577088379e-17
     7    6.689626465762e-02
     8    2.773505145460e-16
     9   -9.839570804925e-17
    10   -2.176658103243e-01
    11   -1.622766841894e-16
    12    4.647974713445e-16
    13    1.128657859507e+00
    14    1.186867576860e-16
    15   -1.579829838043e-17
    16   -1.004055980911e-16
    17    1.963404369335e-17
    18    9.959538324636e-17
    19   -8.948044231650e-17
    20   -8.454971683282e-18
    21    1.638299761429e-17
    22    9.884450592616e-17
    23   -1.177994023802e-16
    24    9.984695196345e-07
    25    7.348109970995e-19
    26   -5.169269202719e-18
    27   -4.631493290201e-12
    28    7.471762127264e-17
    29   -2.279452893729e-18
    30    2.281143446150e-17
Sym=X
Ene= 0.393947
Spin=Alpha
Occup=0
     1   -1.090851492740e-18
     2   -3.419065911800e-18
     3    2.879278501355e-19
     4    1.065538008512e-18
     5    6.689626471694e-02
     6    6.703693405658e-17
     7    2.344861211600e-18
     8   -2.176658106551e-01
     9   -2.115969983100e-16
    10    1.075006250873e-17
    11    1.128657859704e+00
    12    1.100577252472e-15
    13   -5.348227872427e-18
    14    3.172861583847e-18
    15   -2.031673003472e-19
    16   -3.939611553103e-19
    17   -3.675491980638e-20
    18    6.699299695595e-18
    19   -3.228629700192e-18
    20    3.438818886511e-18
    21    9.402256771821e-18
    22    1.934261729816e-18
    23   -4.405045616330e-17
    24   -7.978942621286e-17
    25   -6.114798823195e-07
    26   -1.974041747171e-17
    27   -4.489383009951e-17
    28   -5.945779846944e-19
    29    7.893793167899e-07
    30   -9.726841217520e-20
Sym=X
Ene= 0.393947
Spin=Alpha
Occup=0
     1   -3.076837973220e-18
     2    2.323932021338e-17
     3   -2.014309614392e-16
     4    2.188893584531e-16
     5   -1.128392712739e-16
     6    6.689626473177e-02
     7    5.419280673556e-16
     8    3.460683472512e-16
     9   -2.176658107378e-01
    10   -8.326535074922e-16
    11   -1.506840574496e-15
    12    1.128657859754e+00
    13    5.493384798512e-16
    14    4.196414695786e-17
    15   -1.244276000864e-16
    16    4.101744300329e-17
    17   -4.358778844669e-17
    18   -3.136964777805e-17
    19   -1.713881536898e-16
    20    7.510538058698e-17
    21    1.577379005746e-16
    22   -2.046398755749e-16
    23   -6.354696127213e-17
    24   -5.704977878860e-17
    25   -1.403774812016e-18
    26   -6.114828114780e-07
    27    5.135850599502e-17
    28   -9.410052986285e-17
    29   -2.637007290800e-18
    30   -7.893906619469e-07
Sym=X
Ene= 1.267195
Spin=Alpha
Occup=0
     1   -4.404731193781e-02
     2   -1.853673943488e+00
     3    2.628493476830e+00
     4   -1.139366349268e+00
     5    1.304400361427e-18
     6   -3.806570259987e-17
     7   -1.029724488761e-17
     8    8.589228023806e-18
     9   -6.442922838464e-17
    10    1.105284551470e-16
    11   -7.836010523388e-18
    12    6.785725888935e-17
    13   -8.364145599632e-17
    14    1.009962552603e-10
    15    5.249634068793e-17
    16   -1.090399082968e-16
    17    1.943667544525e-11
    18    1.235065897194e-18
    19   -5.429830062639e-10
    20   -3.250059129867e-16
    21    3.942964457564e-16
    22   -1.044958227379e-10
    23   -4.782129551761e-16
    24    4.080796101878e-18
    25    1.547571767001e-20
    26   -2.435536772688e-17
    27   -1.031419866545e-17
    28    7.072828815748e-23
    29    3.403565669687e-19
    30    1.413001449302e-17
Sym=X
Ene= 1.845605
Spin=Alpha
Occup=0
     1   -1.706894135229e-11
     2   -8.340351028428e-10
     3    1.288431754554e-09
     4   -4.447257598160e-10
     5    3.408632163977e-18
     6    2.789859097572e-16
     7   -5.593929726592e-16
     8   -1.820835311950e-17
     9   -1.438331688928e-15
    10    4.710029155560e-15
    11    1.267284279512e-17
    12    9.823756324602e-16
    13   -2.300855852583e-15
    14   -1.380969127775e-01
    15    1.290675593725e-16
    16    2.027788048650e-16
    17    1.316756814373e-02
    18    1.298215567359e-16
    19    1.069896851821e+00
    20   -1.006887043233e-15
    21   -8.310514164821e-16
    22   -1.020148779561e-01
    23   -3.701052323776e-16
    24   -1.550918016311e-16
    25    1.233989652630e-18
    26   -1.934182471619e-17
    27    2.845775424837e-16
    28    1.483605154761e-17
    29   -2.425714541570e-19
    30    1.587946212828e-16
Sym=X
Ene= 1.845605
Spin=Alpha
Occup=0
     1   -4.938806404151e-16
     2    1.110430603560e-16
     3   -4.205237168557e-16
     4    4.655573835793e-16
     5   -7.034737732099e-18
     6    9.994955654868e-17
     7    8.980906583154e-17
     8    5.024382906534e-17
     9   -1.719237046550e-15
    10   -9.135292994926e-16
    11   -3.386524195215e-17
    12    1.134124150403e-15
    13    6.000994216620e-16
    14   -8.692993258552e-18
    15   -1.387239424573e-01
    16   -4.660720441719e-16
    17   -1.211165876552e-17
    18    2.766487691582e-16
    19    5.676069390418e-16
    20    1.074749754290e+00
    21    2.698152302711e-15
    22   -1.093815731739e-16
    23   -4.268112200337e-16
    24    1.112014776386e-16
    25    1.381550555127e-18
    26   -7.250239465685e-17
    27    6.508441424559e-17
    28   -2.275190011029e-17
    29    1.943790142356e-18
    30    2.179201749912e-16
Sym=X
Ene= 1.845605
Spin=Alpha
Occup=0
     1    5.695317216389e-17
     2    3.279166105932e-16
     3   -1.445640499717e-15
     4    1.380604117148e-15
     5   -1.566080836764e-17
     6    2.408797821738e-16
     7   -2.480275960924e-16
     8    1.096249281769e-16
     9    6.751586978345e-16
    10    1.590607883468e-15
    11   -7.573910844904e-17
    12   -1.116085291669e-15
    13   -1.071812945788e-15
    14    1.200793254420e-16
    15    1.903710784119e-16
    16   -1.387239424622e-01
    17    1.568561651607e-16
    18   -5.729842005207e-17
    19    2.388826777561e-16
    20   -1.338322221057e-15
    21    1.074749754292e+00
    22   -8.164107384391e-17
    23    3.129554992305e-16
    24    1.985784731222e-16
    25    3.338266865757e-18
    26    3.338166852466e-17
    27    1.139728542752e-16
    28    2.485896012701e-16
    29   -4.502788792525e-18
    30   -4.541814845829e-16
Sym=X
Ene= 1.845605
Spin=Alpha
Occup=0
     1   -2.226877331102e-16
     2   -4.629941172100e-16
     3    5.772017269494e-19
     4    5.461857026807e-16
     5    8.837589632265e-17
     6    5.933883249545e-16
     7   -2.071270234675e-16
     8   -5.508595402729e-16
     9   -4.387467271640e-15
    10    4.836819518940e-16
    11    3.724554356160e-16
    12    3.113219268905e-15
    13   -5.676679958211e-17
    14    8.799014685343e-17
    15    2.492183483152e-16
    16    7.040094835495e-17
    17   -1.211734992198e-15
    18   -1.387239424818e-01
    19    2.500627735529e-16
    20   -5.984495295424e-16
    21   -1.293367978165e-16
    22    9.928397650318e-15
    23    1.074749754302e+00
    24   -2.458811162218e-16
    25    6.399709380588e-18
    26   -3.220094247712e-17
    27   -7.579074316114e-17
    28    7.018551783611e-17
    29    5.633250150214e-18
    30    5.941882975001e-17
Sym=X
Ene= 1.845605
Spin=Alpha
Occup=0
     1   -5.004825561718e-12
     2   -2.445189813630e-10
     3    3.777378944331e-10
     4   -1.303829587779e-10
     5   -7.203908388729e-18
     6   -4.618448234945e-16
     7   -2.780934712670e-16
     8    4.198941327634e-17
     9   -4.681326809482e-16
    10    1.701341107008e-15
    11   -2.690820632533e-17
    12    1.339113374002e-15
    13   -1.378963454185e-15
    14   -1.316756814656e-02
    15    1.590459967687e-16
    16   -4.376253816979e-17
    17   -1.380969128072e-01
    18    1.289996135556e-15
    19    1.020148779575e-01
    20   -1.578749836453e-16
    21    3.914575967254e-18
    22    1.069896851835e+00
    23   -1.000998145457e-14
    24    2.119983921701e-16
    25    8.294262292071e-19
    26    9.365768706868e-18
    27    3.190331789810e-16
    28   -4.369119831615e-16
    29    7.453049180965e-19
    30   -2.237144277643e-16
Sym=X
Ene= 2.097711
Spin=Alpha
Occup=0
     1    4.087359790077e-18
     2    3.860092508707e-17
     3    1.171184603010e-17
     4   -5.142313261516e-17
     5   -1.940977184341e-16
     6   -8.789279728832e-17
     7   -2.078939586161e-01
     8    3.032822092597e-16
     9    6.485468696913e-16
    10    1.633390502798e+00
    11   -1.718512331609e-16
    12   -4.388011831604e-17
    13   -9.980901639030e-01
    14   -2.356919047500e-16
    15   -1.853382024634e-16
    16    1.551758458994e-16
    17    1.500780954561e-16
    18   -8.908038988213e-18
    19   -3.602706953762e-15
    20    7.242785110476e-16
    21   -1.204123662879e-15
    22   -9.409935347899e-16
    23   -2.554188719503e-16
    24    3.016837454165e-06
    25    1.629062340716e-17
    26   -6.657934709550e-17
    27   -5.257929986725e-12
    28   -1.240225910004e-16
    29   -6.193018210415e-18
    30   -1.127725980812e-16
Sym=X
Ene= 2.097711
Spin=Alpha
Occup=0
     1   -1.607763203320e-17
     2    3.420821433814e-17
     3   -3.307513138149e-17
     4    1.379358992293e-17
     5   -2.078939586675e-01
     6    2.600680526711e-18
     7   -3.205915217260e-18
     8    1.633390502817e+00
     9    1.626660655393e-17
    10   -3.978491279507e-17
    11   -9.980901637086e-01
    12   -6.003625935799e-17
    13    1.128795082540e-17
    14    3.587613995167e-17
    15    1.738823154212e-17
    16   -9.005255420649e-17
    17    9.069190773439e-18
    18   -1.789564434385e-16
    19   -9.396974665635e-18
    20   -4.520403457283e-17
    21   -1.193645154161e-17
    22   -3.044044308658e-17
    23    3.998248872017e-16
    24    1.395151438134e-16
    25   -1.847478811032e-06
    26   -4.866333212617e-17
    27    3.803730674385e-16
    28   -7.163839802651e-17
    29    2.385041959487e-06
    30   -1.279383813201e-19
Sym=X
Ene= 2.097711
Spin=Alpha
Occup=0
     1    2.078927880112e-17
     2   -1.091803364292e-16
     3    3.596732070160e-16
     4   -3.204420266137e-16
     5    5.915083071682e-17
     6   -2.078939586804e-01
     7   -6.834028578059e-16
     8    6.343677571238e-17
     9    1.633390502821e+00
    10    5.105766375283e-16
    11   -3.529619790996e-17
    12   -9.980901636600e-01
    13   -5.447904158503e-17
    14    2.051461475800e-16
    15   -2.949413824539e-16
    16   -1.084785277992e-16
    17   -1.192745070072e-16
    18   -2.020287345913e-16
    19    9.587793297082e-16
    20    1.247507828805e-15
    21   -7.524444191422e-16
    22    4.907989044714e-16
    23    3.114787789778e-15
    24    3.315104251204e-16
    25   -2.915260415128e-17
    26   -1.847482136267e-06
    27    2.259563729094e-17
    28   -3.595877866653e-17
    29   -2.698453935468e-18
    30   -2.385054838331e-06
Sym=X
Ene= 5.745008
Spin=Alpha
Occup=0
     1    5.739618952463e-18
     2   -3.499533221833e-17
     3    1.344804254183e-16
     4   -1.118884464520e-16
     5    6.299298880826e-16
     6   -2.284233000132e-16
     7    7.213568010063e-05
     8   -9.861280449615e-16
     9   -2.801451763045e-16
    10   -7.160257736103e-05
    11    8.928823684207e-16
    12    3.323388429164e-16
    13    2.587986076652e-05
    14    1.546686024219e-16
    15   -6.336968882497e-16
    16   -1.653471338531e-15
    17   -6.258619369172e-17
    18   -2.217672832720e-15
    19    7.661318817839e-16
    20    6.223651788270e-16
    21    5.148608259082e-17
    22   -2.432246958830e-16
    23    1.337503739667e-15
    24    9.794251979556e-01
    25    1.866562460151e-15
    26    1.852684672343e-15
    27   -2.018075313256e-01
    28    1.185575075613e-15
    29   -6.938893903907e-17
    30   -5.204170427930e-17
Sym=X
Ene= 5.745008
Spin=Alpha
Occup=0
     1   -4.332792722027e-17
     2    6.639024199330e-17
     3   -2.712495966490e-17
     4    1.807254576097e-17
     5    4.792736689586e-05
     6   -1.326011595576e-16
     7   -1.903628424847e-16
     8   -4.757324382337e-05
     9    8.702316411237e-19
    10    2.421340194126e-16
    11    1.719473102935e-05
    12    2.142351030128e-17
    13   -2.946604315752e-17
    14    1.636182197110e-17
    15   -8.546294983753e-17
    16   -1.141628444436e-16
    17   -1.346037018824e-17
    18   -1.456424163493e-16
    19   -1.176362643329e-17
    20    4.597667636248e-17
    21    1.792745523570e-17
    22   -1.055387021880e-17
    23    8.234461171012e-17
    24    1.765030314830e-15
    25   -9.987752596177e-01
    26   -1.110223024625e-16
    27    9.436895709314e-16
    28    7.372574772901e-17
    29    4.947706471082e-02
    30    1.387778780781e-16
Sym=X
Ene= 5.745008
Spin=Alpha
Occup=0
     1    1.256034212537e-16
     2    2.434529205578e-17
     3   -2.371213066556e-16
     4    1.787022409351e-16
     5   -2.793030606358e-16
     6   -4.162629776945e-05
     7   -2.414358685842e-16
     8    5.188144411540e-16
     9    4.131874164599e-05
    10    3.508551819769e-16
    11   -2.778614055965e-16
    12   -1.493411892545e-05
    13   -2.989718591069e-16
    14   -6.293951920475e-16
    15    1.978105494386e-17
    16    3.801406361129e-16
    17    1.223819324755e-15
    18    7.161341520217e-16
    19    4.697522731466e-16
    20   -1.824497907920e-16
    21    1.046497225727e-16
    22   -4.239164114641e-16
    23   -3.773099656942e-16
    24   -1.551279856524e-15
    25   -3.608224830032e-16
    26    9.982951349392e-01
    27   -1.082467449010e-15
    28    6.049848122469e-16
    29   -5.551115123126e-17
    30   -5.836799568807e-02
Sym=X
Ene= 5.745009
Spin=Alpha
Occup=0
     1   -2.673223881636e-16
     2    4.014473302727e-16
     3   -4.995345363970e-16
     4    3.920197166103e-16
     5    2.813763485807e-16
     6    8.788118228117e-16
     7   -7.844054926073e-16
     8    2.256160073159e-17
     9   -3.584971571840e-16
    10    1.166164367434e-15
    11   -6.039076228212e-17
    12    1.543338362368e-16
    13   -3.046904998256e-16
    14   -1.123431202820e-16
    15   -5.268233181495e-16
    16   -7.807004827274e-16
    17    6.242116116206e-16
    18   -1.934272393002e-16
    19    1.346583563663e-16
    20    6.197627219020e-17
    21    8.659527415695e-17
    22    1.069727167901e-15
    23    1.689013079057e-16
    24    6.179580218066e-16
    25   -4.076600168545e-17
    26    5.204170427930e-18
    27    6.545111674860e-15
    28    1.000000000000e+00
    29    2.437286483747e-16
    30   -8.500145032286e-17
Sym=X
Ene= 5.745009
Spin=Alpha
Occup=0
     1    3.710609204552e-18
     2    2.202080919500e-17
     3   -1.856342629547e-16
     4    1.530111280079e-16
     5    1.399714781954e-15
     6    5.396541157984e-16
     7    1.486334661988e-05
     8   -3.100059649809e-15
     9   -7.575230321344e-16
    10   -1.475349462641e-05
    11    1.955928741355e-15
    12    2.784453658474e-16
    13    5.332469823889e-06
    14    1.074436334580e-15
    15    1.701933131840e-15
    16   -1.120573892326e-15
    17   -2.852410354857e-16
    18    1.044937820878e-16
    19   -1.614452786593e-15
    20   -8.469204534887e-16
    21   -1.497525304357e-16
    22   -7.311614715991e-16
    23    1.380619086748e-16
    24    2.018075311247e-01
    25    9.436895709314e-16
    26    6.938893903907e-16
    27    9.794251989306e-01
    28   -5.983494949513e-15
    29   -1.387778780781e-16
    30   -8.326672684689e-17
Sym=X
Ene= 5.745009
Spin=Alpha
Occup=0
     1    3.888367759074e-17
     2   -5.178644752912e-17
     3    3.229593615124e-17
     4   -9.278081923107e-18
     5    5.592338983242e-05
     6   -6.759862861234e-17
     7   -1.118626772262e-17
     8   -5.551012803381e-05
     9    8.579129282975e-17
    10    2.925401236469e-17
    11    2.006343536813e-05
    12   -3.596851987896e-17
    13   -1.838887626669e-17
    14    1.349227539333e-17
    15    8.120863739688e-17
    16    4.356259239853e-18
    17    1.614582995500e-17
    18    8.504972406460e-18
    19   -1.931795691533e-18
    20   -4.947010080370e-17
    21    4.400913600896e-17
    22    8.404153117351e-18
    23   -2.134208600197e-17
    24   -4.878909776185e-18
    25    4.947706568584e-02
    26    3.813616089587e-14
    27   -5.551115123126e-17
    28   -1.630640067418e-16
    29    9.987752594169e-01
    30    6.512013150939e-13
Sym=X
Ene= 5.745009
Spin=Alpha
Occup=0
     1    4.296427836698e-16
     2   -4.478574086314e-16
     3    3.648181316836e-16
     4   -2.635391132194e-16
     5   -1.142710435650e-17
     6   -6.075940268671e-05
     7    1.986085307391e-15
     8    2.353092144981e-17
     9    6.031042794902e-05
    10   -1.355648955800e-15
    11    3.272508482995e-17
    12   -2.179843463190e-05
    13    6.609453461480e-16
    14   -1.134739758352e-16
    15   -6.896386584364e-16
    16    9.911250281104e-16
    17   -2.453750075224e-15
    18   -5.443898220871e-17
    19   -3.581642836145e-16
    20    1.539903815122e-16
    21    6.853468772239e-16
    22    1.452814277347e-15
    23    2.169616093520e-16
    24    3.284810710111e-16
    25   -3.258504577275e-14
    26    5.836799474035e-02
    27    1.137978600241e-15
    28   -4.599185615684e-16
    29   -6.517980599696e-13
    30    9.982951346345e-01
Sym=X
Ene= 6.808475
Spin=Alpha
Occup=0
     1    1.629939519124e+00
     2   -2.168939698042e+00
     3    1.466415050484e+00
     4   -5.094600289104e-01
     5   -1.749082238148e-17
     6    1.544438098212e-15
     7   -1.798726350253e-16
     8    1.871097699961e-17
     9   -1.453776326887e-15
    10    1.693797076687e-16
    11   -7.286696411328e-18
    12    5.207327559137e-16
    13   -6.000498454179e-17
    14    1.323757588168e-10
    15   -2.322518731555e-16
    16    2.522608607815e-18
    17    2.547665534557e-11
    18    9.205536358407e-18
    19   -5.969330638892e-11
    20    1.159788156155e-16
    21   -1.320593636649e-16
    22   -1.148800219070e-11
    23    1.521987031008e-16
    24   -2.677040115224e-18
    25   -8.097096630300e-20
    26   -6.527357565363e-18
    27    3.310249433429e-18
    28    2.081665358618e-16
    29   -1.470898758493e-18
    30   -2.013695458565e-16
Sym=X
Ene= 7.350887
Spin=Alpha
Occup=0
     1    1.783221280030e-16
     2   -1.938438307392e-16
     3    2.417089885527e-16
     4   -1.131823590139e-16
     5    4.392398583717e-16
     6   -2.715839621199e-16
     7    1.642214138727e+00
     8   -3.708800529226e-16
     9    2.723670440796e-16
    10   -1.536742737690e+00
    11    1.054090179588e-16
    12   -2.386245337137e-16
    13    5.513551840704e-01
    14    1.286024755924e-14
    15    1.942485875519e-15
    16    1.182565739382e-15
    17   -2.237669552905e-15
    18    4.627217093583e-15
    19   -6.294807095158e-15
    20   -1.009963921743e-15
    21   -6.161570546101e-16
    22    1.146887321355e-15
    23   -1.882736402467e-15
    24   -4.450738056908e-05
    25   -1.417992933693e-16
    26    3.651607489656e-17
    27   -8.209416990628e-12
    28    6.051076292307e-16
    29    1.181280437488e-17
    30   -1.596341001091e-15
Sym=X
Ene= 7.350887
Spin=Alpha
Occup=0
     1    1.717113885799e-17
     2   -1.874491491841e-17
     3    1.289516328262e-17
     4   -4.289050882912e-18
     5    1.642214138718e+00
     6   -8.739234794866e-16
     7   -4.632707590767e-16
     8   -1.536742737624e+00
     9    7.303007676579e-16
    10    5.431859885633e-16
    11    5.513551840179e-01
    12   -2.101200421501e-16
    13   -1.446219416312e-16
    14   -1.753703183093e-15
    15    9.267682590182e-18
    16   -2.160358941001e-17
    17   -3.350172115760e-16
    18    1.201019443752e-16
    19    8.635433922858e-16
    20   -4.219316259678e-18
    21    1.159410639616e-17
    22    1.663856852231e-16
    23   -7.079475489299e-17
    24   -5.937318555620e-16
    25    2.725501386473e-05
    26    2.109622378194e-16
    27   -4.892119032698e-16
    28   -2.484273009050e-16
    29   -3.518613862339e-05
    30   -5.704671583612e-17
Sym=X
Ene= 7.350887
Spin=Alpha
Occup=0
     1   -1.519543994927e-15
     2    1.650610441822e-15
     3   -1.882102844207e-15
     4    7.500306258413e-16
     5    1.111542959761e-15
     6    1.642214138716e+00
     7   -3.178823595004e-16
     8   -1.060301907290e-15
     9   -1.536742737607e+00
    10    4.999370566779e-16
    11    3.704982602016e-16
    12    5.513551840048e-01
    13   -5.357801028739e-17
    14   -2.988118544628e-15
    15    4.342589432150e-17
    16   -7.140996050500e-15
    17    4.484901933272e-15
    18    1.995906428204e-15
    19    1.407388604532e-15
    20    1.031379909323e-16
    21    3.141548201499e-15
    22   -9.294279730320e-16
    23   -8.230163719823e-16
    24    9.555426333273e-17
    25   -1.023166374219e-16
    26    2.725500866888e-05
    27   -2.872411999911e-16
    28   -6.749615040792e-16
    29    2.947793871535e-17
    30    3.518611851539e-05
Sym=X
Ene= 7.738283
Spin=Alpha
Occup=0
     1   -1.717601802330e-10
     2    2.773342865605e-10
     3   -2.127566300526e-10
     4    6.250907850218e-11
     5    2.306452272772e-15
     6    5.664749999412e-15
     7   -1.876499237681e-14
     8   -2.201362603325e-15
     9   -5.991813705741e-15
    10    1.918106380905e-14
    11    8.009549879171e-16
    12    2.239664789152e-15
    13   -7.788278206873e-15
    14    1.219236836367e+00
    15   -1.320557246639e-11
    16    6.177230022501e-13
    17   -1.162544754347e-01
    18    5.633051956960e-12
    19   -6.007744559918e-01
    20    6.506785791057e-12
    21   -3.048391621653e-13
    22    5.728396415910e-02
    23   -2.775912207630e-12
    24   -5.507417482859e-16
    25    1.219958753210e-17
    26    7.665409956599e-16
    27   -9.768297720215e-16
    28    1.800990576814e-16
    29   -1.112702034817e-17
    30   -1.647243004835e-16
Sym=X
Ene= 7.738283
Spin=Alpha
Occup=0
     1   -5.035803976468e-11
     2    8.131079645146e-11
     3   -6.237732910883e-11
     4    1.832690012161e-11
     5    6.722196648572e-16
     6   -6.175265613762e-15
     7    1.502006039738e-15
     8   -6.397284037321e-16
     9    5.910186895492e-15
    10   -1.291464855824e-15
    11    2.324951557100e-16
    12   -2.044345624511e-15
    13    4.686289606709e-16
    14    1.162544754344e-01
    15    1.142061241135e-12
    16   -3.599267505680e-12
    17    1.219236836364e+00
    18   -2.013981598309e-12
    19   -5.728396415661e-02
    20   -5.627006150670e-13
    21    1.773012888233e-12
    22   -6.007744559656e-01
    23    9.921950627409e-13
    24    1.249528374953e-16
    25    3.395965881396e-18
    26   -5.569729358607e-16
    27    4.968729931597e-16
    28   -8.982056500256e-16
    29   -3.116952362902e-18
    30    2.851762656049e-15
Sym=X
Ene= 7.738586
Spin=Alpha
Occup=0
     1    3.597164472432e-16
     2   -4.380748268514e-16
     3    3.086295187132e-16
     4   -1.188766769242e-16
     5   -7.448810739521e-18
     6   -1.209912521878e-16
     7   -2.325427105035e-15
     8   -8.524555841733e-18
     9    4.719184763702e-16
    10    1.888100260148e-15
    11    8.957674191018e-18
    12   -3.955295838629e-16
    13   -6.632152907421e-16
    14    1.303814292088e-11
    15    1.224766661929e+00
    16   -7.955197915341e-16
    17   -2.390365803636e-12
    18   -1.006918886378e-16
    19   -6.424996140080e-12
    20   -6.034986943126e-01
    21    7.697123916971e-16
    22    1.177487412772e-12
    23   -1.180730047155e-16
    24    2.773309697976e-16
    25    5.033184403802e-18
    26    1.596074627100e-16
    27   -2.099877551870e-15
    28    3.827880420859e-16
    29   -5.810799331775e-19
    30    7.460618354269e-16
Sym=X
Ene= 7.738586
Spin=Alpha
Occup=0
     1    4.002788604915e-17
     2   -7.129750917002e-17
     3    6.548447253090e-17
     4   -3.746965513068e-17
     5   -1.554970350198e-17
     6    1.007084483610e-14
     7   -1.517181664860e-15
     8    1.392289550725e-16
     9   -8.485782561084e-15
    10    1.245587108895e-15
    11   -1.020194875490e-16
    12    2.059709094766e-15
    13   -3.063137425034e-16
    14   -2.732064195628e-13
    15    8.820459011620e-16
    16    1.224766661928e+00
    17    3.641924262903e-12
    18    8.316380814068e-16
    19    1.340594445885e-13
    20    3.543647038133e-17
    21   -6.034986943084e-01
    22   -1.794344104080e-12
    23   -2.767141260943e-16
    24    2.223352453951e-15
    25   -6.967094966331e-17
    26   -3.744170332443e-16
    27    9.542191776547e-16
    28    6.473560976372e-16
    29    7.782241553811e-18
    30   -1.293458441028e-15
Sym=X
Ene= 7.738586
Spin=Alpha
Occup=0
     1   -2.743660945555e-17
     2    2.825799788467e-17
     3   -8.022487286724e-17
     4    6.975879398651e-17
     5   -2.180494276028e-16
     6   -2.795391923640e-15
     7   -6.663628699437e-15
     8    3.765105956999e-16
     9    1.821657824911e-15
    10    6.455507214408e-15
    11   -2.057099689386e-16
    12   -2.485003994266e-16
    13   -2.413293431168e-15
    14   -5.416686740963e-12
    15   -4.167808676306e-16
    16    1.056071858203e-15
    17    2.539578017972e-12
    18    1.224766661926e+00
    19    2.668898868858e-12
    20   -4.077972361920e-16
    21   -7.231303263741e-16
    22   -1.251411341197e-12
    23   -6.034986942912e-01
    24    2.287395930788e-15
    25   -8.883191421240e-17
    26   -7.743279938591e-16
    27   -5.977157980325e-16
    28    8.794055855655e-16
    29    1.012198442592e-17
    30    6.893009343481e-17
Sym=X
Ene= 0.046141
Spin=Beta 
Occup=0
     1    3.917130479008e-02
     2    1.657671992570e-01
     3   -8.374995751791e-02
     4    9.732891166375e-01
     5    3.423606605692e-19
     6   -5.855837987411e-17
     7    6.109946145164e-17
     8    1.330136196906e-19
     9    5.413901690970e-17
    10   -2.952776519922e-17
    11   -1.341745644734e-19
    12   -2.213617544204e-17
    13   -1.041440775353e-17
    14    3.775247370602e-11
    15    5.807036861283e-17
    16   -1.645063907518e-17
    17    7.265519475515e-12
    18    4.599240920142e-17
    19   -1.698154084266e-10
    20   -4.523215446767e-16
    21   -9.290434375783e-17
    22   -3.268110352172e-11
    23    1.549343581562e-16
    24   -6.464658457215e-18
    25   -2.377310614922e-20
    26    4.750508125677e-18
    27   -5.892149052574e-18
    28    4.737177157504e-17
    29    9.215983044955e-22
    30    6.677624015156e-17
Sym=X
Ene= 0.388182
Spin=Beta 
Occup=0
     1    1.007183338911e-01
     2   -1.040797788032e-01
     3    1.792886005931e+00
     4   -1.528927300818e+00
     5    4.846388847496e-19
     6   -1.081749010885e-17
     7    7.653877321407e-19
     8    2.245804668249e-19
     9    8.595892222011e-18
    10    2.976251174707e-17
    11    1.967934215007e-19
    12   -1.274344773980e-17
    13   -4.241787849915e-17
    14    5.696434826710e-12
    15   -3.919768115424e-19
    16   -2.674400182986e-17
    17    1.096341824878e-12
    18   -7.866056421766e-18
    19   -6.522347346505e-11
    20   -2.742535393545e-17
    21    1.211982523197e-16
    22   -1.255231219719e-11
    23   -1.091391512054e-18
    24   -2.482029891697e-19
    25   -2.938855100368e-20
    26    3.188442979482e-19
    27   -3.859582220355e-19
    28    2.366037410980e-17
    29    1.125571198930e-21
    30    2.103208321824e-17
Sym=X
Ene= 0.605355
Spin=Beta 
Occup=0
     1    1.650841469471e-18
     2    3.591574661981e-18
     3    1.037922839306e-17
     4   -9.392366100976e-18