[Molden Format]
[Atoms] (Angs)
 Be      1    4      0.00000000      0.00000000      0.00000000
[GTO]
1    0
S    9    1.000000
   1.46300000E+04    9.20000000E-05 
   2.19100000E+03    7.13000000E-04 
   4.98200000E+02    3.73500000E-03 
   1.40900000E+02    1.54680000E-02 
   4.58600000E+01    5.28740000E-02 
   1.64700000E+01    1.45694000E-01 
   6.31900000E+00    3.02681000E-01 
   2.53500000E+00    4.04936000E-01 
   1.03500000E+00    2.22387000E-01 
S    9    1.000000
   1.46300000E+04   -1.70000000E-05 
   2.19100000E+03   -1.30000000E-04 
   4.98200000E+02   -6.79000000E-04 
   1.40900000E+02   -2.85700000E-03 
   4.58600000E+01   -9.81300000E-03 
   1.64700000E+01   -2.86090000E-02 
   6.31900000E+00   -6.37600000E-02 
   2.53500000E+00   -1.17231000E-01 
   1.03500000E+00   -1.21202000E-01 
S    1    1.000000
   2.52800000E-01    1.00000000E+00 
S    1    1.000000
   1.05200000E-01    1.00000000E+00 
S    1    1.000000
   4.26100000E-02    1.00000000E+00 
P    3    1.000000
   1.40300000E+01    4.09900000E-03 
   3.16800000E+00    2.56260000E-02 
   9.02400000E-01    1.03768000E-01 
P    1    1.000000
   3.03600000E-01    1.00000000E+00 
P    1    1.000000
   1.13000000E-01    1.00000000E+00 
P    1    1.000000
   4.28600000E-02    1.00000000E+00 
D    1    1.000000
   1.07200000E+00    1.00000000E+00 
D    1    1.000000
   4.41000000E-01    1.00000000E+00 
D    1    1.000000
   1.81100000E-01    1.00000000E+00 
F    1    1.000000
   4.81000000E-01    1.00000000E+00 
F    1    1.000000
   2.55000000E-01    1.00000000E+00 
G    1    1.000000
   4.15000000E-01    1.00000000E+00 

[MO]
Sym=X
Ene= -4.732634
Spin=Alpha
Occup=1
     1    9.954128712465e-01
     2   -2.330660611121e-06
     3    1.291187869309e-02
     4   -4.647739488421e-03
     5    1.228116571720e-03
     6    1.319549938787e-17
     7    5.945100121867e-18
     8   -5.370545117454e-19
     9   -3.570265176227e-17
    10   -8.667832283598e-18
    11    7.377694709559e-19
    12    5.861168355466e-17
    13    6.093456526272e-18
    14   -4.968862288853e-19
    15   -3.128715518640e-17
    16   -2.157140108251e-18
    17    1.610138363981e-19
    18   -1.364486522606e-12
    19    1.181292201035e-18
    20    2.016470541641e-19
    21   -8.709519663877e-12
    22   -4.267085826680e-19
    23    4.126589552139e-12
    24    1.432407922472e-18
    25   -2.675703904231e-19
    26    1.041221400820e-11
    27   -4.731270211642e-19
    28    1.558028051330e-12
    29   -1.727973210986e-18
    30    7.590801378013e-20
    31    6.548246971808e-13
    32    1.243736953224e-18
    33    7.649179250775e-17
    34   -6.099597429078e-17
    35    8.386853387724e-17
    36   -2.317417846270e-16
    37    9.304102280536e-17
    38   -9.441477603333e-17
    39   -2.128236529335e-16
    40   -3.169384144214e-17
    41    1.526098301017e-16
    42   -7.283788819963e-17
    43    3.178968939956e-16
    44   -8.970879449090e-17
    45    2.284262070235e-16
    46    1.910439402287e-16
    47    6.221474801081e-17
    48    1.467779413397e-16
    49   -3.321990730270e-16
    50    2.204401513402e-16
    51   -2.378639717538e-16
    52    7.229267375861e-17
    53    3.094798646130e-16
    54   -1.280231708190e-16
    55    3.906653920366e-18
Sym=X
Ene= -0.309260
Spin=Alpha
Occup=1
     1   -7.948728747792e-06
     2    3.024587921292e-01
     3    2.532254858377e-01
     4    5.818404603135e-01
     5    2.919528268122e-01
     6    1.656909740438e-18
     7    1.768627754193e-18
     8   -9.835462142875e-20
     9   -2.697769159031e-18
    10    4.169984718395e-18
    11   -2.288367167667e-19
    12   -6.467446704565e-18
    13    2.084343873951e-18
    14   -1.220834670852e-19
    15    1.552575723711e-17
    16    6.757519292367e-19
    17   -2.623066276894e-20
    18   -5.017195902239e-13
    19   -2.304541593492e-19
    20   -1.498054220914e-19
    21    3.799899178514e-11
    22    4.021663033102e-20
    23   -1.961787546490e-11
    24   -2.486682513177e-18
    25    2.498341536032e-19
    26   -1.709883068571e-10
    27    1.301874480677e-18
    28    2.383943312028e-10
    29    4.921693179403e-18
    30   -7.898302278785e-20
    31    8.023471747550e-10
    32   -3.157112913944e-18
    33   -6.432907889316e-17
    34    6.970290476194e-17
    35   -4.654354345550e-17
    36    5.877618580288e-17
    37    1.386333898879e-16
    38   -3.522220354376e-17
    39    5.627974565211e-17
    40    1.298799064829e-16
    41   -6.190535767265e-17
    42    8.357648713853e-17
    43   -2.175111433693e-16
    44   -2.184072528865e-16
    45    7.041906457614e-17
    46   -1.760881897258e-17
    47    4.187802075471e-16
    48   -3.163744304591e-17
    49    4.053263621448e-17
    50   -1.479985998531e-16
    51   -7.136117788726e-17
    52   -4.595036902771e-18
    53   -1.388805738977e-16
    54    5.530222510723e-16
    55    5.933764887157e-17
Sym=X
Ene= 0.044977
Spin=Alpha
Occup=0
     1    2.327856287173e-20
     2    2.210087003334e-20
     3   -7.295077193554e-20
     4   -2.937420619546e-19
     5    7.383598722988e-19
     6    3.060569722284e-16
     7   -2.326735775977e-16
     8    5.407579571343e-02
     9    4.363840753837e-16
    10   -1.024137296029e-16
    11    1.913475335454e-01
    12    2.260589311320e-15
    13   -1.936354795736e-15
    14    4.365459039937e-02
    15   -5.785580725068e-16
    16    2.044238129340e-15
    17    8.652216671791e-01
    18    8.166792544164e-17
    19   -7.931443097207e-17
    20    2.148208636770e-16
    21    1.103519527896e-16
    22   -5.868371048609e-18
    23   -4.428540801088e-17
    24    1.367935396093e-16
    25   -3.126731548367e-17
    26   -1.006773934719e-16
    27   -1.258838380355e-16
    28    1.883347463264e-16
    29   -5.034596829053e-16
    30   -3.018426374760e-16
    31    5.324078713308e-17
    32    5.974811148013e-16
    33    6.990363938741e-11
    34   -4.875927359522e-17
    35    5.455378184638e-17
    36    1.641858804387e-11
    37   -1.978737523643e-17
    38    6.472640893457e-17
    39    1.378424479229e-16
    40   -1.879917231452e-10
    41    2.158491501651e-16
    42    1.959767609962e-16
    43   -7.030528030762e-11
    44   -1.481894803581e-16
    45   -2.680306670783e-18
    46    9.372762645838e-17
    47   -3.788472338407e-18
    48   -1.861558872784e-17
    49    2.967390172652e-18
    50    1.563755570744e-19
    51    4.600688205062e-17
    52   -4.916220481564e-17
    53   -5.741739590508e-18
    54    2.891570225945e-20
    55   -4.852874205438e-17
Sym=X
Ene= 0.044977
Spin=Alpha
Occup=0
     1   -5.571217377967e-19
     2   -1.130904188429e-18
     3   -1.416794274792e-18
     4    3.785476907570e-19
     5   -2.799718641396e-18
     6    5.407579548298e-02
     7    1.197289862539e-16
     8   -3.929713538184e-16
     9    1.913475336337e-01
    10    2.749515920177e-16
    11   -4.878412872247e-16
    12    4.365458792593e-02
    13   -6.920916385883e-16
    14   -3.294148505546e-15
    15    8.652216693684e-01
    16    1.172022187392e-15
    17    1.688297758956e-15
    18    1.762871361174e-16
    19    2.202096959627e-16
    20   -9.559882116247e-17
    21    2.606419135317e-16
    22    4.737348555447e-18
    23   -8.332087845599e-17
    24   -2.417377792520e-16
    25    4.241009995857e-16
    26   -2.419390104997e-16
    27    5.872378225316e-17
    28    4.251595890696e-16
    29   -8.342079207901e-16
    30   -7.157854537483e-16
    31    8.550629947564e-17
    32    6.141409506488e-16
    33   -9.139134961817e-17
    34    5.188378980444e-11
    35    1.074988835208e-16
    36    3.167051534272e-16
    37    1.296192263133e-16
    38    2.010800321117e-11
    39    4.278837780610e-16
    40    3.407480209690e-18
    41   -1.312612612500e-10
    42    4.945754153346e-16
    43   -1.778773666940e-16
    44   -5.876751375407e-16
    45   -8.610549453627e-11
    46    6.759814337444e-17
    47   -8.450099184380e-18
    48   -4.980160530430e-17
    49   -5.037670304419e-18
    50    9.816905463415e-20
    51    1.043941604628e-16
    52   -1.337354169908e-16
    53    1.119542358259e-18
    54    6.557071293388e-20
    55   -7.234920070583e-17
Sym=X
Ene= 0.044977
Spin=Alpha
Occup=0
     1   -5.383593017066e-19
     2   -7.894720964462e-19
     3    8.693774527254e-19
     4    4.036070975553e-18
     5   -1.105285105984e-17
     6   -4.830546827782e-16
     7    5.407579536343e-02
     8   -6.009941922918e-16
     9   -3.171681632504e-16
    10    1.913475336342e-01
    11    2.709426341017e-16
    12   -1.069397656173e-15
    13    4.365458667146e-02
    14   -1.789411412927e-15
    15   -1.893033723758e-16
    16    8.652216705051e-01
    17    1.503968202598e-15
    18    9.525288620758e-17
    19    1.768671389900e-16
    20   -6.366178837225e-17
    21    1.354616993955e-16
    22   -2.810022020519e-16
    23   -4.539468493432e-17
    24    8.164794193378e-17
    25    1.255516508355e-16
    26   -1.259129406033e-16
    27    3.604105375608e-16
    28    2.308912996718e-16
    29   -6.359134933033e-16
    30   -2.998950842652e-16
    31    4.599061056235e-17
    32    6.743153986644e-17
    33   -6.260640776257e-18
    34   -3.836974444549e-16
    35    6.226745546242e-11
    36    9.028509942083e-17
    37   -1.827864859047e-16
    38   -4.476929851310e-17
    39    2.010897351435e-11
    40   -2.342807095844e-17
    41    6.823321995217e-16
    42   -1.757267758120e-10
    43   -7.446897022118e-17
    44    2.961358533708e-16
    45    1.000809610892e-16
    46   -8.610619536689e-11
    47   -7.143312067210e-18
    48   -6.551989697587e-17
    49   -9.629418848748e-19
    50    2.787226351928e-18
    51    4.484933625388e-17
    52   -1.606926074551e-16
    53   -7.873998468531e-18
    54    3.481544834603e-20
    55    1.212879271639e-17
Sym=X
Ene= 0.133194
Spin=Alpha
Occup=0
     1    7.536258898305e-02
     2   -6.224616693423e-02
     3    3.517586889650e-01
     4   -2.314317666892e+00
     5    2.183380153163e+00
     6    8.244442667912e-19
     7   -2.842825394625e-18
     8    1.562392285219e-19
     9   -1.995221329528e-18
    10   -3.129861455547e-18
    11    1.706631842194e-19
    12    1.036363587438e-17
    13   -2.000560510667e-17
    14    1.096710578172e-18
    15   -6.990544124984e-18
    16    2.562351619679e-17
    17   -1.403896671993e-18
    18   -5.751313691047e-11
    19   -3.448684190509e-20
    20    1.631055591093e-21
    21   -5.051963137285e-11
    22    4.163779647288e-20
    23    2.215553719859e-10
    24    8.780035356154e-20
    25   -2.337511155425e-20
    26    1.782331264984e-10
    27   -8.405153566115e-20
    28   -4.396296384881e-10
    29    2.512722204251e-19
    30    3.924986478325e-20
    31   -3.909282580009e-10
    32    7.001197334009e-20
    33   -2.208062628325e-17
    34    6.375666893378e-18
    35    2.380006008815e-17
    36   -4.807533477161e-18
    37   -1.184226689176e-17
    38   -2.934161806954e-16
    39    6.291878924629e-18
    40    3.892192368257e-17
    41   -9.427780842273e-18
    42   -3.732885050754e-17
    43    1.194841175118e-17
    44    2.156253527474e-17
    45    6.363544705466e-16
    46   -5.837123402926e-18
    47   -1.081158091465e-15
    48   -5.677193835089e-19
    49   -1.040753122682e-16
    50    1.017750968124e-16
    51   -8.245212467939e-18
    52   -1.021428100238e-17
    53   -1.679666716940e-16
    54   -1.537138812289e-15
    55    1.616973048761e-16
Sym=X
Ene= 0.201664
Spin=Alpha
Occup=0
     1    7.450289920025e-20
     2    4.458261783273e-19
     3    7.299480710841e-19
     4    6.314015592247e-19
     5   -7.846841872393e-19
     6    2.913123057561e-16
     7    1.364614878129e-16
     8    1.333694054753e-01
     9    1.268473590455e-15
    10    3.972586626143e-15
    11    2.600498539474e-02
    12    5.800915197787e-16
    13   -3.110144707802e-15
    14    1.381720030531e+00
    15    8.176841026649e-16
    16    1.768715252257e-15
    17   -1.267995587736e+00
    18    6.802161864881e-17
    19    1.008792111407e-16
    20   -4.268125006331e-17
    21    1.192647513460e-16
    22   -4.756404096292e-18
    23    2.003812147825e-17
    24   -2.138576763148e-16
    25    2.790230309881e-16
    26   -1.701095800046e-16
    27   -5.754659201397e-17
    28    1.158248748837e-16
    29    2.512503713012e-16
    30   -4.862410092011e-16
    31    1.797783399265e-16
    32   -4.781310042149e-16
    33    3.578802566959e-12
    34    1.688760582801e-17
    35   -4.382711753650e-16
    36   -1.397180874776e-11
    37   -1.540134760032e-17
    38    7.674700550408e-17
    39   -9.299522646233e-16
    40   -9.488765868072e-11
    41    1.706139423985e-16
    42    2.367291018760e-16
    43   -4.432830412504e-11
    44    2.935698529998e-16
    45   -1.935555818164e-17
    46    5.644531483583e-16
    47   -1.135815676232e-17
    48   -5.294287867442e-17
    49    1.935293805446e-18
    50    4.797345919442e-18
    51   -1.476667207167e-16
    52   -7.089312418831e-18
    53   -1.499149072827e-17
    54    3.369708504223e-20
    55    1.635046763618e-16
Sym=X
Ene= 0.201664
Spin=Alpha
Occup=0
     1   -5.751600250885e-18
     2   -5.333663363226e-18
     3   -3.288325985366e-18
     4    1.632030825399e-17
     5   -1.670356164951e-17
     6    1.333694055524e-01
     7    4.386741642563e-16
     8   -3.663711443777e-16
     9    2.600498509740e-02
    10    1.524215117008e-15
    11   -5.208092182204e-16
    12    1.381720031373e+00
    13    1.169738631178e-15
    14   -1.646245696559e-15
    15   -1.267995586599e+00
    16   -9.841298926525e-16
    17    9.412118936815e-17
    18   -5.466506187718e-17
    19   -1.076056002800e-16
    20   -1.360643884189e-17
    21   -7.947585263327e-17
    22    1.098208061961e-16
    23   -7.389627968284e-18
    24    5.651083994249e-16
    25   -9.568750244812e-18
    26    3.678849468576e-17
    27   -3.835203780721e-16
    28   -8.192469476923e-17
    29   -9.749723338736e-16
    30    9.580954755755e-16
    31    6.431638109662e-17
    32    1.139533813304e-15
    33    9.360502183893e-17
    34    7.336563552740e-12
    35    2.872759671095e-16
    36    3.683366266980e-16
    37   -5.897808344820e-16
    38   -1.710911704405e-11
    39    7.182636948815e-16
    40   -2.274895855968e-16
    41   -6.345127123851e-11
    42   -2.661917601271e-16
    43   -1.539048017918e-16
    44    4.046355862733e-16
    45   -5.429458470891e-11
    46   -6.834188253098e-16
    47    6.534386403718e-18
    48    9.099890314884e-17
    49   -9.808668674386e-18
    50   -1.596353564755e-18
    51    1.691111843308e-16
    52    7.483293819325e-17
    53    2.096293344895e-17
    54   -2.386374945963e-20
    55   -1.145281555155e-16
Sym=X
Ene= 0.201664
Spin=Alpha
Occup=0
     1    1.294960634888e-18
     2   -1.157732808222e-18
     3    1.380841830187e-17
     4   -5.527854546577e-17
     5    4.238172085369e-17
     6   -5.388863885787e-16
     7    1.333694056193e-01
     8    1.059535646619e-16
     9    7.429702200257e-17
    10    2.600498528837e-02
    11    1.890931681589e-15
    12   -3.008984901766e-15
    13    1.381720031372e+00
    14   -9.564420754688e-16
    15    2.699570751633e-15
    16   -1.267995585814e+00
    17    1.015473177991e-15
    18    6.889758823784e-17
    19   -3.019983763030e-17
    20    4.491850080854e-17
    21    1.109489792565e-16
    22    6.112667812964e-17
    23    1.527984323434e-17
    24    1.326403510539e-16
    25   -2.924175846981e-17
    26   -1.296279252549e-16
    27   -7.300345161509e-17
    28    1.036124891362e-16
    29    2.122130325843e-16
    30    2.382841025825e-16
    31    1.041427875890e-17
    32    6.312377603243e-16
    33    1.428790962627e-17
    34   -2.817631851587e-16
    35   -1.500977995138e-12
    36   -2.870117105329e-17
    37   -6.598548896332e-17
    38   -2.632907222146e-16
    39   -1.711468192620e-11
    40   -6.902912643628e-17
    41    1.426009303190e-16
    42   -9.148577625830e-11
    43   -2.772047296448e-16
    44    4.707450813736e-16
    45    4.577448927397e-17
    46   -5.428666621473e-11
    47    1.511686459942e-17
    48   -7.999678977073e-17
    49    4.222973921920e-18
    50   -2.105335188487e-17
    51   -1.279045770851e-16
    52   -1.356931909716e-17
    53    3.523351844324e-18
    54    3.008756177835e-20
    55    1.828388494400e-16
Sym=X
Ene= 0.480468
Spin=Alpha
Occup=0
     1    2.991192851418e-10
     2    5.798911418795e-10
     3    1.925460102267e-09
     4   -3.016810806611e-09
     5    1.439205538016e-09
     6   -2.110002429010e-17
     7   -2.457411191097e-17
     8   -2.251011548724e-17
     9   -1.335860986666e-16
    10   -5.925905840992e-17
    11    7.516417837874e-17
    12    2.239444671508e-16
    13   -1.838843583649e-16
    14   -3.060580250087e-16
    15   -5.327284105985e-16
    16   -2.593673471889e-17
    17    6.459813020682e-17
    18    8.700826685852e-02
    19    4.157131826006e-16
    20   -9.449961291787e-17
    21   -8.296255664100e-03
    22    8.461700324393e-18
    23   -2.884672540138e-01
    24    5.244135559964e-16
    25    1.496625743817e-15
    26    2.750541040746e-02
    27   -4.784266549823e-16
    28    1.165133647411e+00
    29   -1.864488923496e-17
    30   -9.805854526111e-16
    31   -1.110957264982e-01
    32    1.531350865341e-16
    33   -1.699574578535e-16
    34    3.077201296298e-17
    35   -4.103546402390e-17
    36   -1.269879062475e-17
    37   -3.312968295006e-17
    38   -3.038564755704e-17
    39    7.875901893237e-19
    40    7.461667340358e-16
    41   -1.057695904078e-16
    42    3.923567879466e-16
    43    1.454792193125e-16
    44    1.925442545853e-17
    45    7.359171228982e-17
    46   -3.164579902357e-17
    47   -9.878690877905e-11
    48   -8.358197272742e-18
    49    8.547835278938e-17
    50   -6.569167800602e-11
    51    3.855024333804e-17
    52   -1.677768209698e-16
    53   -1.092399017160e-16
    54    1.046936868298e-11
    55   -5.608393922105e-17
Sym=X
Ene= 0.480468
Spin=Alpha
Occup=0
     1   -2.476798283647e-18
     2   -6.500881747461e-18
     3   -2.729592871413e-17
     4    3.925294813468e-17
     5   -1.600478925365e-17
     6   -4.793967455780e-17
     7   -1.051443182940e-16
     8   -2.315215323399e-16
     9    6.437460129348e-17
    10    3.465988258719e-16
    11    2.157020243814e-15
    12    1.275413962195e-15
    13   -1.952520543428e-15
    14   -2.915232005054e-15
    15   -4.578996577135e-16
    16    1.611603562974e-15
    17    1.906685444290e-15
    18    1.504574036296e-17
    19    8.740289675203e-02
    20   -1.677709910549e-17
    21   -1.741484651780e-16
    22    2.482122311044e-16
    23   -1.102017392949e-16
    24   -2.897756101709e-01
    25    6.443302036413e-16
    26    1.005854589480e-15
    27   -4.329949981095e-17
    28   -2.842371520442e-16
    29    1.170418163221e+00
    30   -4.590879249657e-16
    31   -1.207808419929e-15
    32    3.119081269388e-16
    33   -6.571778271045e-17
    34   -8.711802083983e-16
    35   -4.546862395418e-16
    36    4.887088167729e-16
    37   -8.006925714243e-16
    38    9.824739761911e-17
    39    1.809104579386e-17
    40    2.553743228697e-16
    41    2.112875657358e-15
    42    1.464483362327e-15
    43   -5.262469722806e-16
    44   -9.279368271012e-17
    45   -2.233666492276e-16
    46    2.522970355989e-16
    47   -6.261173646160e-17
    48   -6.273230345511e-11
    49    2.384930208526e-16
    50    7.938249848667e-17
    51    3.939588326304e-16
    52   -7.799251271112e-11
    53   -1.802163997378e-16
    54   -1.938934557998e-23
    55   -5.704789117619e-17
Sym=X
Ene= 0.480468
Spin=Alpha
Occup=0
     1   -1.058553588538e-19
     2   -3.024736165041e-19
     3   -1.228957494851e-18
     4    1.733977445581e-18
     5   -7.648128398845e-19
     6   -5.139065021078e-16
     7    1.585937122094e-16
     8    6.187754014285e-16
     9    7.121277533424e-15
    10    7.700107674051e-16
    11    2.379421753733e-16
    12   -8.934338940207e-15
    13   -1.338926888646e-15
    14   -1.055595866182e-15
    15    4.503740344768e-15
    16    7.347723663206e-16
    17    1.567240851931e-15
    18    3.610436578641e-18
    19    6.322159902202e-17
    20    8.740289674959e-02
    21   -2.601099950866e-16
    22    3.687199896582e-17
    23   -5.971724553208e-18
    24   -5.197734879718e-16
    25   -2.897756101974e-01
    26    3.814612001148e-16
    27   -2.611498221551e-16
    28    7.895959077988e-17
    29   -1.761593519220e-17
    30    1.170418163238e+00
    31   -2.426163683835e-16
    32   -1.864898661743e-16
    33   -1.056205970882e-16
    34   -5.557395439206e-16
    35    2.910972598152e-16
    36   -4.489171877491e-16
    37   -2.636807084744e-16
    38    2.697653119142e-16
    39    8.101868018254e-17
    40    2.537964338178e-16
    41    4.457469068161e-16
    42   -1.936325321025e-18
    43    9.017210710091e-16
    44   -3.169478402202e-16
    45   -2.001307379529e-16
    46    1.062209892519e-15
    47   -3.832725556038e-18
    48    9.388884346816e-17
    49   -1.216891224585e-10
    50    2.784660806585e-18
    51    1.246338780254e-16
    52    5.736212862937e-17
    53   -7.799238143298e-11
    54   -1.359554912140e-20
    55   -3.325137221724e-16
Sym=X
Ene= 0.480468
Spin=Alpha
Occup=0
     1    3.025109180192e-19
     2    1.780232428099e-18
     3    1.295407516026e-17
     4   -1.852320900445e-17
     5    6.588282405406e-18
     6   -3.003397583067e-17
     7   -2.820332894197e-17
     8   -1.010160330904e-16
     9    2.759442085920e-15
    10   -2.042492919576e-15
    11   -9.009088853800e-17
    12   -4.549792926689e-15
    13    1.637631079710e-15
    14    1.151706675291e-15
    15    1.774682747662e-15
    16   -5.293892296855e-16
    17   -1.841401817773e-15
    18    9.591255817248e-17
    19    6.506943879225e-17
    20   -1.368591483918e-16
    21    2.889322503769e-15
    22    8.740289676349e-02
    23   -5.514120959154e-17
    24    2.090261386564e-18
    25    3.896135617809e-16
    26   -9.837807255859e-15
    27   -2.897756102698e-01
    28    3.376421558521e-15
    29    1.571759178323e-16
    30   -1.390856749711e-15
    31    3.842826507817e-14
    32    1.170418163280e+00
    33   -4.151359139150e-16
    34   -1.742709689698e-16
    35   -4.736795034490e-16
    36   -2.803278055133e-16
    37   -6.863361354994e-16
    38    5.072104781531e-17
    39    2.868874391574e-16
    40    3.922654759848e-17
    41    2.550178560997e-16
    42    1.177582355684e-15
    43    4.718236513148e-16
    44    8.711077747103e-16
    45   -1.680811620465e-17
    46    4.964024604352e-17
    47   -3.997563652527e-17
    48    1.874796487743e-16
    49    2.321104616358e-16
    50   -2.369837391813e-17
    51   -6.520355867627e-11
    52    7.434319093771e-17
    53   -1.693681190727e-16
    54   -6.794258533075e-20
    55   -1.102978171126e-10
Sym=X
Ene= 0.480468
Spin=Alpha
Occup=0
     1    3.251702694364e-10
     2    5.097171384817e-10
     3    2.188667719235e-09
     4   -3.902528137046e-09
     5    1.534139557685e-09
     6    1.468268984453e-17
     7    1.131038769809e-17
     8    1.977306130168e-17
     9    1.692788209535e-16
    10    6.459608046788e-16
    11   -2.833514547003e-16
    12   -4.724087469777e-16
    13   -6.551588266794e-16
    14   -1.382397708640e-16
    15    2.778179552431e-16
    16    2.101877948607e-16
    17    2.717424433968e-17
    18    8.296255659690e-03
    19   -1.818359244491e-16
    20    1.489920316678e-16
    21    8.700826687508e-02
    22   -3.141584347343e-15
    23   -2.750541042710e-02
    24    3.599438451391e-16
    25   -2.135948457800e-16
    26   -2.884672541305e-01
    27    9.520704325489e-15
    28    1.110957265113e-01
    29   -1.459228762739e-15
    30    1.293653071698e-16
    31    1.165133647479e+00
    32   -3.914390500410e-14
    33    8.270876142512e-17
    34   -1.992293269907e-16
    35   -3.124550149537e-16
    36   -4.983956709090e-16
    37   -9.544753434085e-18
    38   -1.195254854891e-17
    39    5.104254303001e-16
    40    3.059152765301e-16
    41    5.057875091324e-16
    42    6.457153311718e-16
    43    4.155665501415e-16
    44    1.881785671670e-16
    45   -2.525857115145e-17
    46   -8.997579698112e-16
    47   -2.814758558883e-11
    48   -8.672323577031e-18
    49   -1.621528977166e-16
    50   -7.176413572692e-11
    51   -2.573174597647e-17
    52    3.810858750622e-16
    53    4.452591605707e-17
    54   -1.097999304136e-10
    55    1.329452967491e-16
Sym=X
Ene= 0.695008
Spin=Alpha
Occup=0
     1    2.373373909878e-18
     2    5.787004369673e-18
     3    1.814750159754e-17
     4   -2.256116206472e-17
     5    8.767639072720e-18
     6   -2.676840636121e-16
     7   -1.687925858553e-15
     8   -1.364739415962e-01
     9   -1.208095987614e-15
    10   -2.703946008070e-15
    11   -1.520784006858e+00
    12    1.442077404349e-15
    13    8.178999266598e-15
    14    1.966416058528e+00
    15   -8.370667575969e-16
    16   -5.084748946763e-15
    17   -8.078640795474e-01
    18    1.837782102378e-18
    19    2.431901745015e-16
    20   -1.454957869093e-16
    21   -3.427864776032e-17
    22    3.916455855304e-16
    23   -7.783015208194e-18
    24   -6.297762549638e-16
    25    4.998097742230e-16
    26   -5.471728950579e-17
    27   -1.559245204632e-15
    28    5.986599940097e-17
    29    1.545144503567e-15
    30   -2.777616302468e-16
    31   -8.999186131728e-17
    32    1.161010972904e-15
    33    3.098726748843e-10
    34   -3.017186427210e-16
    35   -1.491466458998e-16
    36    2.180720567507e-10
    37    2.246855331721e-16
    38   -9.332323295191e-17
    39    2.919763201957e-16
    40   -6.907345424097e-10
    41    1.812542435864e-15
    42    5.338518612768e-16
    43   -4.409704800289e-10
    44   -6.119975027121e-16
    45   -5.636781222702e-17
    46   -2.993655560123e-17
    47   -5.512844894849e-17
    48   -8.115250690752e-17
    49   -4.002052699395e-17
    50    5.462915813899e-17
    51    8.392935907454e-17
    52   -8.981220377520e-17
    53    1.222903307436e-16
    54   -3.205003859889e-21
    55   -6.304292038989e-17
Sym=X
Ene= 0.695008
Spin=Alpha
Occup=0
     1    2.668142168145e-17
     2    5.938631164884e-17
     3    1.669625659530e-16
     4   -1.931829899180e-16
     5    6.855089952068e-17
     6   -1.364739415775e-01
     7    2.980888235623e-16
     8    2.689939206557e-16
     9   -1.520784006934e+00
    10    4.367463740180e-15
    11    1.022981172157e-15
    12    1.966416058065e+00
    13   -5.599057840114e-15
    14   -6.334739183949e-16
    15   -8.078640790258e-01
    16    2.218512493822e-15
    17   -3.307727186499e-17
    18    2.301339660345e-18
    19   -4.453621736904e-17
    20    2.360629704918e-16
    21    6.343249065801e-17
    22   -2.032068888063e-16
    23    1.586244841085e-17
    24    6.897138005701e-16
    25   -7.534537693753e-16
    26   -1.412020587790e-16
    27    5.798815411415e-16
    28   -4.166341100601e-17
    29   -7.218186853679e-16
    30    4.625317802717e-15
    31    2.776928921706e-16
    32    1.278021940546e-15
    33    6.495146233117e-16
    34    1.840479633980e-10
    35    7.955159587968e-16
    36   -5.141428710811e-16
    37    9.295176604484e-16
    38    2.670855515778e-10
    39   -5.539512200214e-16
    40   -2.976214083726e-16
    41   -4.245320595607e-10
    42   -2.457359518304e-15
    43    1.824786246362e-15
    44   -2.318287427736e-15
    45   -5.400829753808e-10
    46    1.589788145791e-15
    47    4.706944149726e-17
    48   -2.884256144287e-17
    49    3.418614500281e-17
    50   -4.677315443230e-17
    51   -4.777818048706e-17
    52   -9.523358288833e-17
    53    1.658417047270e-17
    54    1.775049873996e-21
    55   -6.833396563989e-18
Sym=X
Ene= 0.695008
Spin=Alpha
Occup=0
     1   -4.262304897919e-17
     2   -1.040047823178e-16
     3   -3.258713021172e-16
     4    4.048719900643e-16
     5   -1.570764269905e-16
     6   -2.679797962686e-16
     7   -1.364739415081e-01
     8   -5.819582215758e-16
     9   -4.714388945241e-15
    10   -1.520784007011e+00
    11    2.318173322573e-15
    12    7.079508782948e-15
    13    1.966416058154e+00
    14    3.453234741343e-15
    15   -3.423740379632e-15
    16   -8.078640790660e-01
    17   -5.076752955741e-15
    18   -6.702656165205e-18
    19    6.144753159843e-17
    20   -8.054900265599e-18
    21    3.634402198876e-17
    22   -2.813228299833e-17
    23    1.271586239468e-17
    24   -4.304727070934e-16
    25   -5.603656464117e-16
    26    1.575519783086e-16
    27    7.587298221509e-16
    28    2.866295861566e-17
    29    4.704271717991e-16
    30    1.511066648185e-15
    31    4.383042062524e-16
    32   -1.739925919839e-15
    33    2.881648534842e-17
    34    1.183630959690e-16
    35    3.219657309484e-10
    36   -3.783367142045e-16
    37   -5.284699524600e-17
    38    2.121072551416e-16
    39    2.670795247956e-10
    40    1.509623765212e-16
    41    3.027509464688e-16
    42   -7.034208976308e-10
    43    4.554993478981e-16
    44    1.009028879850e-15
    45    1.845673477411e-16
    46   -5.400723987097e-10
    47    3.763502402979e-17
    48    1.181943166388e-17
    49    6.872803876304e-17
    50   -3.787790313551e-17
    51   -2.752490988110e-17
    52    8.292612749199e-17
    53   -2.825322200529e-17
    54   -1.462384274242e-21
    55   -1.466636885761e-17
Sym=X
Ene= 0.731987
Spin=Alpha
Occup=0
     1    4.448861055060e-01
     2    1.070724461822e+00
     3    3.215678199411e+00
     4   -3.917086582175e+00
     5    1.494679036537e+00
     6    1.481842191672e-17
     7   -1.230392935008e-17
     8    7.036928855984e-19
     9    7.708997733131e-17
    10   -1.566575742176e-16
    11    8.705782033009e-18
    12   -1.029800154590e-16
    13    1.964684437029e-16
    14   -1.071697962580e-17
    15    4.186704172927e-17
    16   -7.971201932507e-17
    17    4.345801625181e-18
    18   -4.199936183774e-11
    19    1.802166283737e-18