[Molden Format]
[Atoms] (Angs)
 Be      1    4      0.00000000      0.00000000      0.00000000
[GTO]
1    0
S    9    1.000000
   1.46300000E+04    9.20000000E-05 
   2.19100000E+03    7.13000000E-04 
   4.98200000E+02    3.73500000E-03 
   1.40900000E+02    1.54680000E-02 
   4.58600000E+01    5.28740000E-02 
   1.64700000E+01    1.45694000E-01 
   6.31900000E+00    3.02681000E-01 
   2.53500000E+00    4.04936000E-01 
   1.03500000E+00    2.22387000E-01 
S    9    1.000000
   1.46300000E+04   -1.70000000E-05 
   2.19100000E+03   -1.30000000E-04 
   4.98200000E+02   -6.79000000E-04 
   1.40900000E+02   -2.85700000E-03 
   4.58600000E+01   -9.81300000E-03 
   1.64700000E+01   -2.86090000E-02 
   6.31900000E+00   -6.37600000E-02 
   2.53500000E+00   -1.17231000E-01 
   1.03500000E+00   -1.21202000E-01 
S    1    1.000000
   2.52800000E-01    1.00000000E+00 
S    1    1.000000
   1.05200000E-01    1.00000000E+00 
S    1    1.000000
   4.26100000E-02    1.00000000E+00 
P    3    1.000000
   1.40300000E+01    4.09900000E-03 
   3.16800000E+00    2.56260000E-02 
   9.02400000E-01    1.03768000E-01 
P    1    1.000000
   3.03600000E-01    1.00000000E+00 
P    1    1.000000
   1.13000000E-01    1.00000000E+00 
P    1    1.000000
   4.28600000E-02    1.00000000E+00 
D    1    1.000000
   1.07200000E+00    1.00000000E+00 
D    1    1.000000
   4.41000000E-01    1.00000000E+00 
D    1    1.000000
   1.81100000E-01    1.00000000E+00 
F    1    1.000000
   4.81000000E-01    1.00000000E+00 
F    1    1.000000
   2.55000000E-01    1.00000000E+00 
G    1    1.000000
   4.15000000E-01    1.00000000E+00 

[MO]
Sym=X
Ene= -4.084323
Spin=Alpha
Occup=1
     1    9.962459968729e-01
     2    8.612519708291e-03
     3    3.885712765431e-02
     4   -2.254362521797e-02
     5    7.255134007235e-03
     6    9.680350988435e-18
     7   -4.471450528612e-19
     8    6.319418597074e-20
     9   -3.070998349177e-17
    10    5.889626161854e-19
    11   -5.865261323061e-20
    12    5.408005878536e-17
    13   -4.201103325192e-19
    14   -1.118937243921e-20
    15   -2.936405308266e-17
    16    1.585259456020e-19
    17    2.164105947496e-20
    18   -1.300371292244e-13
    19    9.809352665701e-19
    20    2.883106990269e-19
    21   -1.001389978981e-15
    22   -5.500121862587e-19
    23   -4.601184789887e-13
    24    1.222481024038e-18
    25   -3.620038910302e-19
    26   -9.933352957518e-14
    27   -4.266214081986e-19
    28    1.199806992306e-13
    29   -1.459600117645e-18
    30    1.211673839315e-19
    31    2.728071881974e-14
    32    1.172467585698e-18
    33    2.094693110185e-16
    34   -6.456685787824e-17
    35    9.090539021304e-17
    36   -1.815467236558e-16
    37    1.042131298073e-16
    38   -8.707134805655e-17
    39   -2.083079547429e-16
    40   -7.717086266069e-17
    41    1.500448836677e-16
    42   -7.788551067121e-17
    43    2.727441990418e-16
    44   -9.915583221958e-17
    45    2.158311015044e-16
    46    1.882469336732e-16
    47    8.896745426569e-06
    48    1.751528910719e-16
    49    1.404439804923e-16
    50    4.492517204731e-16
    51   -1.615277330034e-16
    52   -5.323036085423e-16
    53    2.916778250081e-16
    54    7.519122250465e-06
    55    5.772194627067e-18
Sym=X
Ene= -0.232164
Spin=Alpha
Occup=1
     1   -3.902064243858e-02
     2    2.778926564871e-01
     3    2.779024450411e-01
     4    5.747653944324e-01
     5    2.761270039919e-01
     6   -7.924326153586e-20
     7   -6.953678700714e-19
     8    2.499334800749e-20
     9   -5.199806489896e-18
    10    2.615218721572e-18
    11   -8.420557385478e-19
    12   -9.536095186171e-18
    13   -4.229174669957e-19
    14   -6.581991866296e-19
    15    1.054180378855e-17
    16    4.168493796482e-18
    17   -3.570548408130e-19
    18   -2.417785627900e-11
    19    9.713802512649e-19
    20    1.175025207574e-19
    21   -4.630755638163e-12
    22    4.582933538768e-19
    23    8.544893354262e-11
    24   -4.896318213725e-18
    25    3.677546739942e-19
    26    1.643583158172e-11
    27   -1.827671586852e-18
    28   -2.778930953729e-10
    29    5.050492320572e-18
    30    1.788340163229e-18
    31   -5.413438796242e-11
    32    2.350083203612e-18
    33   -4.967684482624e-17
    34    5.697460619058e-17
    35   -3.542397225840e-17
    36    4.560842811049e-17
    37    1.115492196528e-16
    38    2.753598837251e-19
    39    4.432378379502e-17
    40    1.055542557350e-16
    41   -4.963209377852e-17
    42    6.631360734157e-17
    43   -1.793109977379e-16
    44   -1.764644889330e-16
    45   -4.984046903696e-19
    46   -1.212979155766e-17
    47   -4.836481921540e-06
    48    1.095495016901e-16
    49    1.713771024648e-16
    50   -4.420101203766e-16
    51   -1.136163162329e-16
    52    5.681375197122e-17
    53   -2.588774631066e-17
    54   -4.087573274329e-06
    55    5.602352401208e-17
Sym=X
Ene= -0.051838
Spin=Alpha
Occup=0
     1    3.102361427426e-17
     2    3.637142801270e-17
     3   -5.481106875518e-18
     4    2.147069088146e-17
     5   -1.420885198875e-17
     6    6.831627769049e-17
     7   -9.959343910645e-18
     8    1.176861024559e-01
     9    2.663404046599e-16
    10    2.143277178765e-16
    11    2.587897555815e-01
    12   -5.374341994012e-17
    13   -2.059526729931e-16
    14    3.549248185405e-01
    15    9.416751148246e-17
    16    2.354050144208e-16
    17    4.843351653884e-01
    18    1.992081375959e-18
    19   -1.358966235616e-17
    20    1.486827651299e-16
    21   -2.073446726519e-17
    22   -8.871581365483e-17
    23   -3.496004172647e-18
    24   -3.263951452290e-16
    25   -1.056062487768e-16
    26    2.579908157526e-17
    27    3.009310299220e-16
    28    1.746696144953e-17
    29    1.231187923378e-15
    30    2.047491539448e-16
    31   -7.554716387737e-17
    32   -3.240078848759e-16
    33    2.277253927974e-05
    34    1.598608374782e-16
    35    1.986605983315e-16
    36    9.490765182472e-12
    37    1.985463138865e-16
    38   -1.287258479869e-16
    39    1.457443088828e-16
    40   -1.733167454991e-05
    41   -2.275137493562e-16
    42   -3.852777882629e-16
    43   -2.440111700009e-11
    44   -2.551110458312e-16
    45    1.065131120003e-16
    46   -1.442202264171e-16
    47    2.986402844717e-18
    48   -6.743421245839e-17
    49    4.728448674279e-18
    50    1.361264838430e-18
    51   -1.173039941923e-16
    52   -7.360778869047e-18
    53    1.746033754550e-17
    54    2.467400575705e-19
    55   -8.030385822922e-17
Sym=X
Ene= -0.051838
Spin=Alpha
Occup=0
     1   -1.457709434969e-17
     2   -1.654414204446e-17
     3    2.570402670538e-18
     4   -1.881065497532e-17
     5    2.316112055394e-17
     6    1.176861022518e-01
     7   -2.308692672337e-16
     8    3.995107658086e-17
     9    2.587897554426e-01
    10   -9.905933605334e-16
    11    2.817142379411e-16
    12    3.549248170026e-01
    13   -8.753443756750e-17
    14   -2.767117937035e-16
    15    4.843351673197e-01
    16   -6.468713347150e-16
    17    1.262292967228e-16
    18   -1.445232538495e-18
    19   -1.864792421072e-16
    20   -3.306989516478e-17
    21    4.947334731360e-17
    22    3.237126290981e-16
    23    6.756867975540e-18
    24   -4.076621525223e-18
    25   -6.194981090088e-17
    26   -4.043632733646e-17
    27   -1.225213537820e-15
    28   -9.273266638277e-18
    29    1.201394248115e-16
    30    7.351853789100e-17
    31   -2.237380218927e-17
    32    8.442843666767e-16
    33    1.701295812143e-16
    34   -1.394518422913e-05
    35   -1.690388029292e-16
    36    2.797902074448e-16
    37    2.314676061275e-16
    38    1.800323259081e-05
    39   -4.879741614582e-17
    40    6.285695765275e-17
    41    1.061320531725e-05
    42    2.003164249513e-16
    43   -1.979653115585e-16
    44   -1.917576871330e-16
    45   -1.370178770181e-05
    46   -1.402314163158e-16
    47   -1.468627420395e-19
    48    1.124461009657e-17
    49   -4.537375850353e-17
    50   -1.365373656833e-17
    51    5.501122948739e-17
    52    9.027282264225e-17
    53   -3.739367953162e-17
    54    7.371448642146e-20
    55    1.747727004260e-17
Sym=X
Ene= -0.051838
Spin=Alpha
Occup=0
     1    1.795123375743e-16
     2    2.110663947833e-16
     3    4.113316067041e-17
     4   -4.320785005509e-17
     5    1.824967330449e-17
     6    2.458093090637e-16
     7    1.176861022006e-01
     8    3.165304552119e-17
     9    5.184043796798e-16
    10    2.587897554077e-01
    11   -3.922725053148e-16
    12    1.087738963173e-15
    13    3.549248166187e-01
    14    1.091696190607e-15
    15    6.281619105478e-16
    16    4.843351678020e-01
    17   -3.676022008874e-16
    18   -1.758920128607e-19
    19   -6.232944518251e-16
    20   -1.683522741470e-16
    21    1.598431794308e-16
    22   -7.327605145916e-17
    23    1.896588309880e-19
    24    6.700378180449e-16
    25    1.263623264959e-16
    26   -1.426671014873e-16
    27    4.988259015768e-16
    28    4.537961554302e-18
    29   -8.030516992289e-16
    30   -2.356095688292e-16
    31   -2.123182937348e-16
    32   -2.882935630888e-16
    33   -1.493250885937e-16
    34    4.239206578183e-16
    35   -1.394517822136e-05
    36    2.704059079115e-16
    37    1.244396250776e-16
    38   -1.544744367685e-16
    39   -1.800320933677e-05
    40    2.160519323403e-16
    41   -6.846293556651e-16
    42    1.061318988126e-05
    43   -5.580319547184e-16
    44   -2.661872070695e-16
    45   -1.507882587379e-16
    46    1.370172792735e-05
    47    8.425902305871e-20
    48    1.400431498733e-17
    49   -3.778963240779e-17
    50    1.659020267664e-17
    51    2.676785681228e-17
    52    9.160465711176e-17
    53   -3.587773442727e-17
    54   -1.337531861424e-19
    55   -1.470626459187e-19
Sym=X
Ene= 0.066006
Spin=Alpha
Occup=0
     1    7.197445923516e-02
     2   -9.927214570433e-02
     3    1.749186075120e-01
     4   -2.079985871665e+00
     5    2.099256139134e+00
     6    3.236394805546e-18
     7   -3.674487000922e-18
     8   -4.688058282645e-18
     9   -3.661709174772e-19
    10    2.960228296216e-18
    11    5.447234000637e-18
    12    2.276521595951e-17
    13   -2.832748265188e-17
    14   -4.405235737324e-17
    15   -3.723546846083e-17
    16    2.633984294239e-17
    17    5.196057587625e-17
    18   -4.781400066354e-11
    19    4.171233040927e-19
    20   -6.897243427205e-19
    21   -9.215093684907e-12
    22   -8.110099209895e-19
    23    1.720992287364e-10
    24   -3.798569094236e-19
    25    9.446188734960e-19
    26    3.311956602406e-11
    27    2.102221602339e-18
    28   -3.403541491261e-10
    29    1.393425322417e-18
    30    1.415514728585e-18
    31   -6.526272280287e-11
    32   -9.178071456816e-19
    33   -1.125038106565e-17
    34    2.885193800245e-18
    35    1.271485564820e-17
    36    2.597103179975e-18
    37   -5.244715139311e-18
    38    3.460130489124e-18
    39    2.491411714026e-18
    40    2.121336596134e-17
    41   -6.585673413330e-18
    42   -2.100705123691e-17
    43    2.108349153720e-18
    44    7.076349335446e-18
    45   -1.036206070045e-17
    46   -1.092465098994e-18
    47    3.071359477963e-06
    48    6.003810710598e-17
    49    4.346650744058e-16
    50    3.605080756150e-16
    51    4.573019581417e-17
    52   -5.585491145084e-18
    53   -7.790572723472e-17
    54    2.595772528750e-06
    55    8.916956693804e-18
Sym=X
Ene= 0.103326
Spin=Alpha
Occup=0
     1    3.479274205770e-18
     2    1.384872129065e-17
     3    1.888328463373e-17
     4    3.726428919792e-17
     5   -5.671330354165e-17
     6    3.193054046302e-16
     7   -8.818223109337e-17
     8   -1.401695567753e-01
     9   -5.814847433932e-17
    10   -7.420115456596e-16
    11   -1.193056342958e-01
    12   -1.692162187960e-16
    13    3.233939499486e-16
    14   -1.081858926944e+00
    15    1.694141068683e-16
    16    2.790036266307e-16
    17    1.376298599776e+00
    18    1.177385889622e-18
    19   -5.461920661792e-17
    20    1.679924098303e-16
    21   -2.640582874095e-18
    22   -1.561407931258e-16
    23   -8.913081109482e-18
    24    7.296072322844e-17
    25   -3.492890412255e-16
    26    3.269300819211e-17
    27   -4.001328349043e-17
    28    1.014044612456e-17
    29   -2.809134524894e-16
    30    3.068123352304e-16
    31   -1.995216775628e-17
    32   -5.169494714861e-17
    33   -2.608611369465e-05
    34   -1.240196651937e-16
    35    8.547588102941e-17
    36    3.732086518684e-12
    37   -1.071715730010e-16
    38   -1.367765713162e-16
    39    1.426961258527e-16
    40    1.983756577713e-05
    41   -7.225133116232e-17
    42    1.492741459426e-17
    43   -1.486051633704e-12
    44    8.903426123560e-17
    45    1.855452849337e-17
    46    7.307092353820e-17
    47    3.070906495713e-19
    48    4.504288953466e-17
    49   -1.548947463000e-16
    50   -2.806139195932e-18
    51    2.872141232390e-16
    52    1.591963949484e-16
    53   -1.383944670481e-16
    54    8.689984568697e-22
    55    2.788469189883e-16
Sym=X
Ene= 0.103326
Spin=Alpha
Occup=0
     1    9.816228640414e-18
     2    7.211745217430e-18
     3    9.010776096336e-18
     4   -5.803485443806e-17
     5    5.636749987233e-17
     6   -1.401695568824e-01
     7   -1.261782556512e-16
     8    8.967884235822e-17
     9   -1.193056338680e-01
    10   -2.611891238136e-16
    11   -3.027398092272e-16
    12   -1.081858928552e+00
    13    8.096646687923e-16
    14    3.879708154050e-16
    15    1.376298599594e+00
    16   -3.235852796887e-16
    17   -6.180810004026e-17
    18   -1.066553599176e-19
    19    3.406160693956e-17
    20    6.447633606152e-17
    21   -5.725216242124e-18
    22   -3.265553260788e-17
    23   -3.516819069151e-18
    24   -2.701712734401e-16
    25   -2.319126496127e-16
    26    2.677641814999e-17
    27    3.389945583513e-16
    28   -2.099342417455e-19
    29    5.175188668221e-16
    30    1.913277839728e-16
    31   -1.339876449862e-16
    32   -3.824374604918e-16
    33   -3.276160914988e-16
    34    1.597445310784e-05
    35    3.563823234497e-16
    36   -7.209999120411e-17
    37   -6.263980215412e-17
    38   -2.062289972047e-05
    39    4.234648581525e-16
    40    3.378695254044e-16
    41   -1.214799316243e-05
    42   -2.700924764226e-16
    43   -1.843448565876e-17
    44    2.682160136260e-17
    45    1.568297934438e-05
    46   -1.694472023179e-16
    47   -2.916504727735e-19
    48   -8.908837465742e-17
    49   -8.905266857075e-17
    50    5.706643727642e-18
    51    4.892580997483e-17
    52    1.134503106519e-16
    53   -9.552990954436e-18
    54    2.764574736481e-19
    55   -2.898954593120e-17
Sym=X
Ene= 0.103326
Spin=Alpha
Occup=0
     1    1.703345376808e-18
     2    2.219453453651e-18
     3   -1.636300710175e-17
     4    5.331873720073e-17
     5   -4.464115704416e-17
     6   -1.387820062693e-18
     7   -1.401695569090e-01
     8    4.254929720700e-17
     9    6.934021235774e-16
    10   -1.193056337601e-01
    11    5.202572645859e-17
    12   -1.322253088644e-15
    13   -1.081858928955e+00
    14   -6.415431777669e-16
    15    5.970345617852e-16
    16    1.376298599549e+00
    17    4.076569728299e-16
    18   -4.290350932837e-19
    19   -1.774245770350e-16
    20    3.599332260428e-16
    21   -2.223486635453e-18
    22    1.541305835957e-16
    23   -1.336369396191e-18
    24    2.280094660372e-16
    25   -2.953391760932e-16
    26   -2.233013246427e-17
    27   -2.556290842896e-16
    28   -4.171158804922e-18
    29   -2.289763958594e-16
    30    7.225543223253e-17
    31    3.030139006671e-16
    32    1.207926464993e-16
    33    5.507867201190e-16
    34    1.743043942467e-17
    35    1.597445546997e-05
    36    2.676250425186e-17
    37    3.885839042234e-17
    38   -6.978127217918e-17
    39    2.062290886425e-05
    40   -2.402052600263e-16
    41    6.898417298887e-18
    42   -1.214799410421e-05
    43    1.159183755418e-16
    44   -2.671335123557e-16
    45   -1.350739857432e-17
    46   -1.568298298712e-05
    47   -1.214654583179e-17
    48    2.997344765337e-17
    49   -1.357336728875e-17
    50    1.894799310379e-17
    51    3.232364781288e-17
    52   -1.813507896590e-17
    53   -1.462500375158e-17
    54    1.439288912204e-18
    55    1.423893036732e-16
Sym=X
Ene= 0.345182
Spin=Alpha
Occup=0
     1    1.484178459739e-10
     2    3.914317402745e-10
     3    1.211836374818e-09
     4   -1.754061116774e-09
     5    1.110138974537e-09
     6   -2.335104243218e-17
     7   -6.196694200923e-17
     8   -8.346456107919e-18
     9    1.823266442478e-17
    10   -4.261296983131e-18
    11    1.560689509692e-17
    12    2.370258917095e-17
    13   -1.153550106143e-17
    14    1.049902754139e-18
    15   -2.804297805971e-17
    16    1.403126943712e-17
    17   -1.079999700797e-17
    18    8.030405176165e-02
    19   -1.294573993787e-12
    20   -4.315417025084e-13
    21   -7.657007346858e-03
    22   -4.902108847791e-13
    23   -2.371984209309e-01
    24    3.825407789286e-12
    25    1.275173921888e-12
    26    2.261691672944e-02
    27    1.448608683398e-12
    28    1.134527423775e+00
    29   -1.829892835512e-11
    30   -6.099848415458e-12
    31   -1.081774160639e-01
    32   -6.929395780067e-12
    33    5.257481227068e-17
    34    3.218033578270e-17
    35    3.617306918063e-17
    36    4.665535291603e-18
    37   -1.909905141682e-17
    38    2.372352612662e-17
    39    3.341405056989e-17
    40   -1.707303274320e-16
    41   -8.222868546666e-17
    42   -6.028834299449e-17
    43    8.955367150131e-17
    44    3.408839697395e-17
    45    8.738320731346e-17
    46   -8.510069388228e-17
    47   -1.894328352873e-07
    48    2.322255688112e-17
    49    6.249669281527e-17
    50   -2.797795307113e-08
    51   -8.673184349178e-18
    52   -2.383041203800e-17
    53   -1.395641005375e-16
    54    2.240807139645e-07
    55   -1.938902005566e-16
Sym=X
Ene= 0.345182
Spin=Alpha
Occup=0
     1    4.343598710275e-11
     2    1.149651959622e-10
     3    3.555840481504e-10
     4   -5.135789902650e-10
     5    3.252345088826e-10
     6    1.879855824116e-16
     7    4.573115703997e-16
     8    4.613304790204e-17
     9    6.897427230666e-17
    10    8.214361950918e-17
    11   -2.724321815882e-16
    12   -5.453030521088e-16
    13    1.357852573098e-16
    14    9.321126876525e-17
    15    4.695631316233e-16
    16   -1.787987185070e-16
    17   -9.637861082320e-17
    18    7.657007348542e-03
    19    9.533036864927e-12
    20   -4.555115629810e-14
    21    8.030405177964e-02
    22    4.070470652659e-12
    23   -2.261691674051e-02
    24   -2.816941657786e-11
    25    1.347401958998e-13
    26   -2.371984210477e-01
    27   -1.202867265286e-11
    28    1.081774160706e-01
    29    1.347475813088e-10
    30   -6.454699224743e-13
    31    1.134527423845e+00
    32    5.753876836200e-11
    33   -2.507659082663e-16
    34   -4.811139301207e-16
    35   -1.454084536966e-16
    36   -4.868665173019e-16
    37   -1.654200497770e-16
    38    2.782779671147e-17
    39    7.560901874085e-18
    40    1.171192866513e-15
    41    1.010358975765e-15
    42    6.946267243813e-17
    43    4.995089460313e-16
    44    1.552125171518e-16
    45    1.000436188042e-16
    46   -4.025196800723e-17
    47   -1.806411689767e-08
    48   -2.409744910424e-16
    49   -1.571688150062e-16
    50    2.933557862782e-07
    51   -3.032766861686e-17
    52   -2.533655125982e-16
    53    5.210234263948e-17
    54    2.135633232590e-08
    55    9.076113915581e-17
Sym=X
Ene= 0.345187
Spin=Alpha
Occup=0
     1   -5.102265281159e-18
     2   -1.144974753991e-17
     3   -4.161842294362e-17
     4    6.129338926318e-17
     5   -2.642675958649e-17
     6    3.388854220846e-17
     7   -1.462276282988e-16
     8   -1.139238475022e-16
     9   -4.396231457471e-17
    10   -6.862421231406e-16
    11   -5.363179243353e-16
    12    9.636961932113e-16
    13    1.016678704439e-15
    14   -6.425968695534e-17
    15   -1.158505370779e-15
    16   -3.225291613950e-17
    17   -2.885109986757e-16
    18    3.840805038408e-13
    19    8.062708916391e-02
    20    3.662924100183e-16
    21   -9.618049456371e-12
    22    1.720768343473e-16
    23   -1.134483647388e-12
    24   -2.382491521845e-01
    25    5.066614394879e-16
    26    2.840929275965e-11
    27    3.319116073871e-16
    28    5.426171411667e-12
    29    1.139667154799e+00
    30    5.864466491633e-16
    31   -1.358790826681e-10
    32   -2.029296124043e-16
    33   -7.405208871214e-16
    34    2.042360134634e-16
    35    2.785256992248e-16
    36    3.285095226844e-16
    37    8.230871597256e-16
    38   -7.726028869308e-16
    39    2.642697825595e-16
    40    1.662168805453e-15
    41   -4.343523099398e-16
    42   -1.434358033335e-15
    43   -6.187627487338e-16
    44   -1.006696940080e-15
    45    1.878413786015e-15
    46   -1.232545591058e-15
    47   -6.136104493523e-17
    48   -7.159862409810e-08
    49    2.822786326973e-16
    50    3.310152581343e-17
    51    1.315450454023e-16
    52   -1.893222252092e-07
    53    9.304944154605e-17
    54    1.114117904043e-17
    55    2.371156593226e-17
Sym=X
Ene= 0.345187
Spin=Alpha
Occup=0
     1    2.249678391250e-18
     2    3.523738698075e-18
     3    6.925870176159e-18
     4   -6.750046698705e-18
     5   -7.360509982670e-19
     6   -3.885821333455e-16
     7   -1.277790898955e-16
     8    5.154955543891e-16
     9   -1.138368136336e-15
    10    3.724581602644e-16
    11   -1.572538623772e-15
    12    2.014243723208e-15
    13   -5.853227633259e-16
    14    2.144527313538e-16
    15   -1.293355697247e-15
    16    3.200331417313e-16
    17    6.963450321499e-16
    18    4.341576742385e-13
    19   -1.044872315162e-16
    20    8.062708916685e-02
    21    4.281230169514e-15
    22    1.259106156995e-16
    23   -1.282400730333e-12
    24    1.607444070158e-16
    25   -2.382491522037e-01
    26   -1.300466979189e-14
    27   -6.355934173243e-16
    28    6.133640851992e-12
    29   -8.756660490033e-16
    30    1.139667154811e+00
    31    6.350414433147e-14
    32    3.907320840929e-16
    33   -5.378616833143e-16
    34   -2.332055659379e-16
    35    8.299228787207e-18
    36    1.346395763584e-16
    37    5.061871492877e-16
    38   -2.375723441335e-16
    39   -1.681087227746e-16
    40    5.014963564596e-16
    41    1.529808288293e-17
    42   -5.194583362111e-17
    43    3.652008988216e-16
    44   -5.840572344807e-16
    45   -5.278583569784e-17
    46    3.582176337513e-16
    47   -7.425281859384e-18
    48    6.207537759340e-17
    49   -7.160384248860e-08
    50    1.093452447377e-17
    51    2.356456340106e-16
    52   -2.208897366195e-16
    53    1.893084185575e-07
    54    2.254793054116e-18
    55   -4.686549723882e-16
Sym=X
Ene= 0.345187
Spin=Alpha
Occup=0
     1    3.505133586741e-19
     2   -1.799441920573e-18
     3   -3.266051682220e-18
     4   -1.542692828059e-18
     5   -1.471210934674e-18
     6    1.985283757549e-16
     7    3.324061521817e-16
     8    2.731326864246e-16
     9    2.714726283349e-15
    10    1.382468372618e-15
    11    1.226572731813e-15
    12   -3.606795733685e-15
    13   -2.220899578088e-15
    14   -1.928062974015e-15
    15    1.389321384292e-15
    16    1.118379922878e-15
    17    6.559582089122e-16
    18    1.016826358269e-13
    19    1.306243918674e-17
    20    2.078189802175e-16
    21   -4.100772040005e-12
    22    8.062708917870e-02
    23   -3.003470103494e-13
    24    1.092677266518e-16
    25   -6.423307504130e-16
    26    1.211275157220e-11
    27   -2.382491522805e-01
    28    1.436556966535e-12
    29   -3.569087672704e-16
    30   -3.506341185431e-16
    31   -5.793751667767e-11
    32    1.139667154857e+00
    33   -2.242971310649e-16
    34   -8.143143168457e-16
    35   -5.291914345648e-16
    36    2.733280809022e-16
    37   -1.156828671278e-15
    38   -2.121222020658e-16
    39    2.093677827917e-16
    40    9.490094646837e-16
    41    1.104202736412e-15
    42    1.386750453891e-15
    43    4.083223716228e-16
    44    1.378008552245e-15
    45    7.932902936540e-16
    46   -1.258733600142e-16
    47    2.127159694572e-17
    48    9.361735411565e-17
    49    2.103889723464e-16
    50   -3.485805486929e-17
    51    2.023535223912e-07
    52   -1.079612531908e-16
    53   -1.084482986064e-16
    54   -2.262198390514e-18
    55   -9.762986294180e-12
Sym=X
Ene= 0.522488
Spin=Alpha
Occup=0
     1   -6.944247414898e-17
     2   -9.681431471953e-17
     3   -9.604303215442e-17
     4    1.050736796459e-16
     5   -3.547763164542e-17
     6    2.583753171055e-16
     7   -1.760691494436e-15
     8   -1.770378134646e-01
     9    2.090976004471e-16
    10   -1.983286988414e-15
    11   -1.425036927842e+00
    12    6.236989464253e-16
    13    6.010503442069e-15
    14    2.075889072194e+00
    15   -8.985879252263e-16
    16   -3.633777272952e-15
    17   -9.247316428569e-01
    18   -2.430987074754e-18
    19   -5.239220046065e-17
    20    2.196646075627e-17
    21   -2.699275852643e-17
    22    9.427770575347e-17
    23   -3.235432644657e-18
    24    2.669356229755e-16
    25    1.441366499820e-16
    26   -6.973723846439e-17
    27   -2.014600552123e-15
    28   -5.619044440756e-18
    29   -3.552902031074e-16
    30   -7.797141484712e-16
    31   -7.636307602090e-17
    32    2.608719763244e-15
    33   -5.287325094487e-05
    34   -3.451532868802e-17
    35   -6.478447177126e-16
    36    2.069620551836e-11
    37   -9.542821931817e-17
    38   -1.164256736919e-16
    39   -2.444685308528e-16
    40    4.306591812369e-05
    41    1.926411749132e-17
    42    1.402813324389e-15
    43   -5.476689430754e-11
    44   -1.263327176794e-16
    45    2.645751134514e-16
    46    1.338408996258e-15
    47   -4.181911546628e-17
    48   -9.227450066059e-17
    49   -1.543072355333e-17
    50    3.458480097723e-17
    51   -2.536854440258e-17
    52   -1.889428457658e-17
    53    6.708413571057e-17
    54   -3.650682626887e-19
    55   -9.512752093216e-17
Sym=X
Ene= 0.522488
Spin=Alpha
Occup=0
     1   -6.937663725056e-17
     2   -5.149858589680e-17
     3    1.598044389749e-16
     4   -2.069156670191e-16
     5    8.051942533688e-17
     6   -1.770378134475e-01
     7    1.800789257980e-17
     8    9.432328613541e-17
     9   -1.425036928017e+00
    10   -1.177934791403e-16
    11   -9.110002401562e-16
    12    2.075889071710e+00
    13   -3.493840683840e-16
    14    9.367572415328e-16
    15   -9.247316421612e-01
    16    4.843455968603e-16
    17   -1.061540864773e-16
    18    2.093079589252e-18
    19   -1.933625080995e-16
    20   -1.756457125067e-16
    21    5.131620182053e-17
    22   -1.208341747641e-16
    23   -2.493915830029e-18
    24    6.601467380985e-16
    25    5.289595849839e-16
    26   -1.064056133334e-16
    27    4.648518665085e-16
    28    1.034356602328e-17
    29   -3.533267930200e-16
    30   -9.806419346539e-16
    31    3.319293554705e-16
    32    1.525348719501e-15
    33    5.217808355604e-16
    34    3.237832298352e-05
    35    7.894281946667e-16
    36   -2.354193555197e-17
    37    2.515604283508e-16
    38   -4.180006484386e-05
    39   -2.151530685405e-16
    40   -5.957885214099e-16
    41   -2.637291282887e-05
    42   -1.678595411356e-15
    43    8.232320918633e-16
    44   -1.531205809171e-15
    45    3.404683436553e-05
    46    7.115570964575e-16
    47    3.528286724689e-17
    48   -4.085866406934e-17
    49    4.846269289363e-17
    50   -2.715114472935e-17
    51    1.167256010999e-16
    52    8.041250018368e-17
    53    4.475923359392e-17
    54   -4.313953417852e-19
    55    1.035816406753e-16
Sym=X
Ene= 0.522488
Spin=Alpha
Occup=0
     1    9.450899506310e-17
     2    1.016634963910e-16
     3   -2.170827369827e-17
     4    3.547613095182e-17
     5   -1.250022611239e-17
     6    2.164845543069e-16
     7   -1.770378134433e-01
     8   -3.982221639980e-16
     9    9.285531443587e-16
    10   -1.425036928061e+00
    11    1.622964254850e-15
    12   -9.557246839742e-16
    13    2.075889071588e+00
    14    1.446578113914e-15
    15   -2.695787674245e-16
    16   -9.247316419865e-01
    17   -2.970224367567e-15
    18   -2.553149696762e-18
    19   -8.274374584226e-17
    20    2.564544015874e-16
    21    4.415102027807e-17
    22   -1.265085938290e-16
    23    4.798092605375e-18
    24    4.347437741114e-17
    25   -5.194490058713e-16
    26    2.390951043161e-17
    27    3.121828043323e-16
    28    7.542865770014e-18
    29   -6.155451585876e-16
    30    9.470942300778e-16
    31    4.635449327322e-16
    32    8.862967825480e-16
    33   -8.841350673429e-17
    34   -6.559789067685e-17
    35    3.237833607186e-05
    36   -2.899178340447e-16
    37   -3.868821951828e-16
    38   -1.113056369015e-16
    39    4.180011554101e-05
    40    1.815179417977e-16
    41    4.501804162602e-16
    42   -2.637294746646e-05
    43    5.055551121076e-16
    44    1.071666250467e-15
    45    6.015825454844e-16
    46   -3.404696852397e-05
    47    3.227195946858e-17
    48   -5.919180921645e-17
    49    1.017048173592e-16
    50   -1.283806369518e-17
    51   -9.309628623667e-17
    52    5.142662389822e-17
    53    4.912613678855e-17
    54    6.459160702425e-19
    55   -7.775074465698e-17
Sym=X
Ene= 0.576712
Spin=Alpha
Occup=0
     1    3.450910694177e-01
     2    9.578566925548e-01
     3    3.201810062420e+00
     4   -4.029999149041e+00
     5    1.607864743610e+00
     6    1.663379047607e-17
     7   -1.004078625669e-17
     8   -3.305658149473e-18
     9    7.935133277824e-17
    10   -1.322545918801e-17
    11   -3.368111402131e-17
    12   -1.195617835178e-16
    13    2.085583245073e-17
    14    6.190987867387e-17
    15    5.114363812158e-17
    16   -5.656035454256e-18
    17   -3.151841786299e-17
    18   -1.228089152670e-11
    19    3.884033731421e-18