
                                 *****************
                                 * O   R   C   A *
                                 *****************

                                            #,                                       
                                            ###                                      
                                            ####                                     
                                            #####                                    
                                            ######                                   
                                           ########,                                 
                                     ,,################,,,,,                         
                               ,,#################################,,                 
                          ,,##########################################,,             
                       ,#########################################, ''#####,          
                    ,#############################################,,   '####,        
                  ,##################################################,,,,####,       
                ,###########''''           ''''###############################       
              ,#####''   ,,,,##########,,,,          '''####'''          '####       
            ,##' ,,,,###########################,,,                        '##       
           ' ,,###''''                  '''############,,,                           
         ,,##''                                '''############,,,,        ,,,,,,###''
      ,#''                                            '''#######################'''  
     '                                                          ''''####''''         
             ,#######,   #######,   ,#######,      ##                                
            ,#'     '#,  ##    ##  ,#'     '#,    #''#        ######   ,####,        
            ##       ##  ##   ,#'  ##            #'  '#       #        #'  '#        
            ##       ##  #######   ##           ,######,      #####,   #    #        
            '#,     ,#'  ##    ##  '#,     ,#' ,#      #,         ##   #,  ,#        
             '#######'   ##     ##  '#######'  #'      '#     #####' # '####'        



                  #######################################################
                  #                        -***-                        #
                  #          Department of theory and spectroscopy      #
                  #    Directorship and core code : Frank Neese         #
                  #        Max Planck Institute fuer Kohlenforschung    #
                  #                Kaiser Wilhelm Platz 1               #
                  #                 D-45470 Muelheim/Ruhr               #
                  #                      Germany                        #
                  #                                                     #
                  #                  All rights reserved                #
                  #                        -***-                        #
                  #######################################################


                         Program Version 5.0.3 -  RELEASE  -


 With contributions from (in alphabetic order):
   Daniel Aravena         : Magnetic Suceptibility
   Michael Atanasov       : Ab Initio Ligand Field Theory (pilot matlab implementation)
   Alexander A. Auer      : GIAO ZORA, VPT2 properties, NMR spectrum
   Ute Becker             : Parallelization
   Giovanni Bistoni       : ED, misc. LED, open-shell LED, HFLD
   Martin Brehm           : Molecular dynamics
   Dmytro Bykov           : SCF Hessian
   Vijay G. Chilkuri      : MRCI spin determinant printing, contributions to CSF-ICE
   Dipayan Datta          : RHF DLPNO-CCSD density
   Achintya Kumar Dutta   : EOM-CC, STEOM-CC
   Dmitry Ganyushin       : Spin-Orbit,Spin-Spin,Magnetic field MRCI
   Miquel Garcia          : C-PCM and meta-GGA Hessian, CC/C-PCM, Gaussian charge scheme
   Yang Guo               : DLPNO-NEVPT2, F12-NEVPT2, CIM, IAO-localization
   Andreas Hansen         : Spin unrestricted coupled pair/coupled cluster methods
   Benjamin Helmich-Paris : MC-RPA, TRAH-SCF, COSX integrals
   Lee Huntington         : MR-EOM, pCC
   Robert Izsak           : Overlap fitted RIJCOSX, COSX-SCS-MP3, EOM
   Marcus Kettner         : VPT2
   Christian Kollmar      : KDIIS, OOCD, Brueckner-CCSD(T), CCSD density, CASPT2, CASPT2-K
   Simone Kossmann        : Meta GGA functionals, TD-DFT gradient, OOMP2, MP2 Hessian
   Martin Krupicka        : Initial AUTO-CI
   Lucas Lang             : DCDCAS
   Marvin Lechner         : AUTO-CI (C++ implementation), FIC-MRCC
   Dagmar Lenk            : GEPOL surface, SMD
   Dimitrios Liakos       : Extrapolation schemes; Compound Job, initial MDCI parallelization
   Dimitrios Manganas     : Further ROCIS development; embedding schemes
   Dimitrios Pantazis     : SARC Basis sets
   Anastasios Papadopoulos: AUTO-CI, single reference methods and gradients
   Taras Petrenko         : DFT Hessian,TD-DFT gradient, ASA, ECA, R-Raman, ABS, FL, XAS/XES, NRVS
   Peter Pinski           : DLPNO-MP2, DLPNO-MP2 Gradient
   Christoph Reimann      : Effective Core Potentials
   Marius Retegan         : Local ZFS, SOC
   Christoph Riplinger    : Optimizer, TS searches, QM/MM, DLPNO-CCSD(T), (RO)-DLPNO pert. Triples
   Tobias Risthaus        : Range-separated hybrids, TD-DFT gradient, RPA, STAB
   Michael Roemelt        : Original ROCIS implementation
   Masaaki Saitow         : Open-shell DLPNO-CCSD energy and density
   Barbara Sandhoefer     : DKH picture change effects
   Avijit Sen             : IP-ROCIS
   Kantharuban Sivalingam : CASSCF convergence, NEVPT2, FIC-MRCI
   Bernardo de Souza      : ESD, SOC TD-DFT
   Georgi Stoychev        : AutoAux, RI-MP2 NMR, DLPNO-MP2 response
   Willem Van den Heuvel  : Paramagnetic NMR
   Boris Wezisla          : Elementary symmetry handling
   Frank Wennmohs         : Technical directorship


 We gratefully acknowledge several colleagues who have allowed us to
 interface, adapt or use parts of their codes:
   Stefan Grimme, W. Hujo, H. Kruse, P. Pracht,  : VdW corrections, initial TS optimization,
                  C. Bannwarth, S. Ehlert          DFT functionals, gCP, sTDA/sTD-DF
   Ed Valeev, F. Pavosevic, A. Kumar             : LibInt (2-el integral package), F12 methods
   Garnet Chan, S. Sharma, J. Yang, R. Olivares  : DMRG
   Ulf Ekstrom                                   : XCFun DFT Library
   Mihaly Kallay                                 : mrcc  (arbitrary order and MRCC methods)
   Jiri Pittner, Ondrej Demel                    : Mk-CCSD
   Frank Weinhold                                : gennbo (NPA and NBO analysis)
   Christopher J. Cramer and Donald G. Truhlar   : smd solvation model
   Lars Goerigk                                  : TD-DFT with DH, B97 family of functionals
   V. Asgeirsson, H. Jonsson                     : NEB implementation
   FAccTs GmbH                                   : IRC, NEB, NEB-TS, DLPNO-Multilevel, CI-OPT
                                                   MM, QMMM, 2- and 3-layer-ONIOM, Crystal-QMMM,
                                                   LR-CPCM, SF, NACMEs, symmetry and pop. for TD-DFT,
                                                   nearIR, NL-DFT gradient (VV10), updates on ESD,
                                                   ML-optimized integration grids
   S Lehtola, MJT Oliveira, MAL Marques          : LibXC Library
   Liviu Ungur et al                             : ANISO software


 Your calculation uses the libint2 library for the computation of 2-el integrals
 For citations please refer to: http://libint.valeyev.net

 Your ORCA version has been built with support for libXC version: 5.1.0
 For citations please refer to: https://tddft.org/programs/libxc/

 This ORCA versions uses:
   CBLAS   interface :  Fast vector & matrix operations
   LAPACKE interface :  Fast linear algebra routines
   SCALAPACK package :  Parallel linear algebra routines
   Shared memory     :  Shared parallel matrices
   BLAS/LAPACK       :  OpenBLAS 0.3.15  USE64BITINT DYNAMIC_ARCH NO_AFFINITY Haswell SINGLE_THREADED
        Core in use  :  Haswell
   Copyright (c) 2011-2014, The OpenBLAS Project


Reading of a custom orbital basis requested
Basis file: ../../../../basis/aug-cc-pVQZ-CDF.bas
READING GTO-BASIS: HYDROGEN
READING GTO-BASIS: BORON
READING GTO-BASIS: CARBON
READING GTO-BASIS: NITROGEN
READING GTO-BASIS: OXYGEN
READING GTO-BASIS: FLUORINE
READING GTO-BASIS: NEON
Basis read successfully!



***************************************
The coordinates will be read from file: ../../../../../chem_database/Ne.xyz
***************************************


================================================================================

----- Orbital basis set information -----
Basis read from file: ../../../../basis/aug-cc-pVQZ-CDF.bas

================================================================================
                                        WARNINGS
                       Please study these warnings very carefully!
================================================================================


INFO   : the flag for use of the SHARK integral package has been found!


WARNING: TRAH-SCF with ROHF wave function is not implemented yet
  ===> : Turning TRAH off

================================================================================
                                       INPUT FILE
================================================================================
NAME = mol.inp
|  1> # ================================================================
|  2> # Orca input file
|  3> # ================================================================
|  4> ! ROHF cc-pVDZ VeryTightSCF UseSym
|  5> ! PAL4
|  6> 
|  7> %scf
|  8>   Guess = HCore
|  9> end
| 10> 
| 11> %basis
| 12> GTOName = "../../../../basis/aug-cc-pVQZ-CDF.bas";
| 13> newecp Ne
| 14>  N_core 2
| 15>  lmax d
| 16>  d 8
| 17>   1           23.98355867           8.00000000    1
| 18>   2           42.70821870     4260890.85700183    2
| 19>   3           47.41797481    -4260923.85981658    2
| 20>   4           45.72840766         -69.36751949    3
| 21>   5           19.71818701         261.23598882    3
| 22>   6           47.56311105    -4230117.31478379    4
| 23>   7           32.53929099      -30703.17469857    4
| 24>   8           44.41642441   -15808501.18648128    4
| 25>  s 8
| 26>   1           31.97029845      -19825.76341055    2
| 27>   2           17.35737808       19856.89033402    2
| 28>   3           24.19205288      -59316.34709988    3
| 29>   4           20.32706051      515825.16585810    3
| 30>   5           19.81808392     -456508.81875823    3
| 31>   6           22.35158601     -148690.75885727    4
| 32>   7           28.23979799     -287991.29593392    4
| 33>   8           28.79520619      147510.03455863    4
| 34>  p 8
| 35>   1           26.47670976      -52636.05441718    2
| 36>   2           42.56666925       52623.47050847    2
| 37>   3           23.96622528     -112143.18881657    3
| 38>   4           25.17192785     -105349.00945971    3
| 39>   5           24.55238944      217492.19827629    3
| 40>   6           27.98838767      254016.86026529    4
| 41>   7           51.49563240       16112.39232378    4
| 42>   8           36.92327306      576247.07582714    4
| 43> end
| 44> 
| 45> end
| 46> 
| 47> * xyzfile 0 1 ../../../../../chem_database/Ne.xyz
| 48> 
| 49>                          ****END OF INPUT****
================================================================================

------------------------------------------------------------------------------
                            SYMMETRY HANDLING SETUP
------------------------------------------------------------------------------

------------------
SYMMETRY DETECTION
------------------
The point group will now be determined using a tolerance of 1.0000e-04.
The Z matrix contains a single non-dummy atom.
No further testing needed for point group Kh.
This point group has been found:    Kh
Largest non-degenerate subgroup:    D2h


Symmetry-perfected Cartesians (point groups Kh and D2h):

Atom          Symmetry-perfected Cartesians (x, y, z; au)
  0       0.000000000000    0.000000000000    0.000000000000


-----------------------------------------------
SYMMETRY-PERFECTED CARTESIAN COORDINATES (A.U.)
-----------------------------------------------
Warning (ORCA_SYM): Coordinates were not cleaned so far!

------------------
SYMMETRY REDUCTION
------------------
ORCA supports only abelian point groups.
It is now checked, if the determined point group is supported:
Point Group ( D2h   ) is          ... supported

(Re)building abelian point group:
Creating Character Table          ... done
Making direct product table       ... done
Constructing symmetry operations  ... done
Creating atom transfer table      ... done
Creating asymmetric unit          ... done

----------------------
ASYMMETRIC UNIT IN D2h
----------------------
  #  AT     MASS              COORDS (A.U.)             BAS
   0 Ne  20.1790   0.00000000   0.00000000   0.00000000   0

----------------------
SYMMETRY ADAPTED BASIS
----------------------
The coefficients for the symmetry adapted linear combinations (SALCS)
of basis functions will now be computed:
Number of basis functions         ...    79
Preparing memory                  ... done
Constructing Gamma(red)           ... done
Reducing Gamma(red)               ... done
Constructing SALCs                ... done
Checking SALC integrity           ... nothing suspicious
Normalizing SALCs                 ... done

Storing the symmetry object:
Symmetry file                     ... mol.sym.tmp
Writing symmetry information      ... done

                       ****************************
                       * Single Point Calculation *
                       ****************************

---------------------------------
CARTESIAN COORDINATES (ANGSTROEM)
---------------------------------
  Ne     0.000000    0.000000    0.000000

----------------------------
CARTESIAN COORDINATES (A.U.)
----------------------------
  NO LB      ZA    FRAG     MASS         X           Y           Z
   0 Ne    8.0000*   0    20.179    0.000000    0.000000    0.000000
* core charge reduced due to ECP

--------------------------------
INTERNAL COORDINATES (ANGSTROEM)
--------------------------------
 Ne     0   0   0     0.000000000000     0.00000000     0.00000000

---------------------------
INTERNAL COORDINATES (A.U.)
---------------------------
 Ne     0   0   0     0.000000000000     0.00000000     0.00000000

---------------------
BASIS SET INFORMATION
---------------------
There are 1 groups of distinct atoms

 Group   1 Type Ne  : 14s14p4d3f2g contracted to 5s5p4d3f2g pattern {101111/101111/1111/111/11}

Atom   0Ne   basis set group =>   1
-------------------------
ECP PARAMETER INFORMATION
-------------------------

 Group 1, Type Ne ECP (replacing 2 core electrons, lmax=2)

Atom   0Ne   ECP group =>   1



           ************************************************************
           *        Program running with 4 parallel MPI-processes     *
           *              working on a common directory               *
           ************************************************************
------------------------------------------------------------------------------
                           ORCA GTO INTEGRAL CALCULATION
------------------------------------------------------------------------------
------------------------------------------------------------------------------
                   ___                                                        
                  /   \      - P O W E R E D   B Y -                         
                 /     \                                                     
                 |  |  |   _    _      __       _____    __    __             
                 |  |  |  | |  | |    /  \     |  _  \  |  |  /  |          
                  \  \/   | |  | |   /    \    | | | |  |  | /  /          
                 / \  \   | |__| |  /  /\  \   | |_| |  |  |/  /          
                |  |  |   |  __  | /  /__\  \  |    /   |      \           
                |  |  |   | |  | | |   __   |  |    \   |  |\   \          
                \     /   | |  | | |  |  |  |  | |\  \  |  | \   \       
                 \___/    |_|  |_| |__|  |__|  |_| \__\ |__|  \__/        
                                                                              
                      - O R C A' S   B I G   F R I E N D -                    
                                      &                                       
                       - I N T E G R A L  F E E D E R -                       
                                                                              
 v1 FN, 2020, v2 2021                                                         
------------------------------------------------------------------------------


Reading SHARK input file mol.SHARKINP.tmp ... ok
----------------------
SHARK INTEGRAL PACKAGE
----------------------

Number of atoms                             ...      1
Number of basis functions                   ...     79
Number of shells                            ...     19
Maximum angular momentum                    ...      4
Integral batch strategy                     ... SHARK/LIBINT Hybrid
RI-J (if used) integral strategy            ... SPLIT-RIJ (Revised 2003 algorithm where possible)
Printlevel                                  ...      1
Contraction scheme used                     ... SEGMENTED contraction
Coulomb Range Separation                    ... NOT USED
Exchange Range Separation                   ... NOT USED
Finite Nucleus Model                        ... NOT USED
Auxiliary Coulomb fitting basis             ... NOT available
Auxiliary J/K fitting basis                 ... NOT available
Auxiliary Correlation fitting basis         ... NOT available
Auxiliary 'external' fitting basis          ... NOT available
Integral threshold                          ...     1.000000e-12
Primitive cut-off                           ...     1.000000e-14
Primitive pair pre-selection threshold      ...     1.000000e-14

Calculating pre-screening integrals         ... done (  0.1 sec) Dimension = 19
Organizing shell pair data                  ... done (  0.0 sec)
Shell pair information
Total number of shell pairs                 ...       190
Shell pairs after pre-screening             ...       190
Total number of primitive shell pairs       ...       793
Primitive shell pairs kept                  ...       793
          la=0 lb=0:     15 shell pairs
          la=1 lb=0:     25 shell pairs
          la=1 lb=1:     15 shell pairs
          la=2 lb=0:     20 shell pairs
          la=2 lb=1:     20 shell pairs
          la=2 lb=2:     10 shell pairs
          la=3 lb=0:     15 shell pairs
          la=3 lb=1:     15 shell pairs
          la=3 lb=2:     12 shell pairs
          la=3 lb=3:      6 shell pairs
          la=4 lb=0:     10 shell pairs
          la=4 lb=1:     10 shell pairs
          la=4 lb=2:      8 shell pairs
          la=4 lb=3:      6 shell pairs
          la=4 lb=4:      3 shell pairs

Calculating one electron integrals          ... done (  0.0 sec)
Calculating ECP integrals                   ... done (  0.1 sec)
Calculating Nuclear repulsion               ... done (  0.0 sec) ENN=      0.000000000000 Eh

SHARK setup successfully completed in   0.3 seconds

Maximum memory used throughout the entire GTOINT-calculation: 33.5 MB


           ************************************************************
           *        Program running with 4 parallel MPI-processes     *
           *              working on a common directory               *
           ************************************************************
-------------------------------------------------------------------------------
                                 ORCA SCF
-------------------------------------------------------------------------------

------------
SCF SETTINGS
------------
Hamiltonian:
 Ab initio Hamiltonian  Method          .... Hartree-Fock(GTOs)


General Settings:
 Integral files         IntName         .... mol
 Hartree-Fock type      HFTyp           .... ROHF
 Total Charge           Charge          ....    0
 Multiplicity           Mult            ....    1
 Number of Electrons    NEL             ....    8
 Basis Dimension        Dim             ....   79
 Nuclear Repulsion      ENuc            ....      0.0000000000 Eh

 Symmetry handling      UseSym         .... ON
 Point group                           .... D2h
 Used point group                      .... D2h
 Number of irreps                      .... 8
   Irrep   Ag has   19 symmetry adapted basis functions (ofs=   0)
   Irrep  B1g has    8 symmetry adapted basis functions (ofs=  19)
   Irrep  B2g has    8 symmetry adapted basis functions (ofs=  27)
   Irrep  B3g has    8 symmetry adapted basis functions (ofs=  35)
   Irrep   Au has    3 symmetry adapted basis functions (ofs=  43)
   Irrep  B1u has   11 symmetry adapted basis functions (ofs=  46)
   Irrep  B2u has   11 symmetry adapted basis functions (ofs=  57)
   Irrep  B3u has   11 symmetry adapted basis functions (ofs=  68)

Convergence Acceleration:
 DIIS                   CNVDIIS         .... on
   Start iteration      DIISMaxIt       ....    12
   Startup error        DIISStart       ....  0.200000
   # of expansion vecs  DIISMaxEq       ....     5
   Bias factor          DIISBfac        ....   1.050
   Max. coefficient     DIISMaxC        ....  10.000
 Trust-Rad. Augm. Hess. CNVTRAH         .... off
 SOSCF                  CNVSOSCF        .... off
 Level Shifting         CNVShift        .... on
   Level shift para.    LevelShift      ....    0.2500
   Turn off err/grad.   ShiftErr        ....    0.0010
 Zerner damping         CNVZerner       .... off
 Static damping         CNVDamp         .... on
   Fraction old density DampFac         ....    0.7000
   Max. Damping (<1)    DampMax         ....    0.9800
   Min. Damping (>=0)   DampMin         ....    0.0000
   Turn off err/grad.   DampErr         ....    0.1000
 Fernandez-Rico         CNVRico         .... off

SCF Procedure:
 Maximum # iterations   MaxIter         ....   125
 SCF integral mode      SCFMode         .... Direct
   Integral package                     .... SHARK and LIBINT hybrid scheme
 Reset frequency        DirectResetFreq ....    20
 Integral Threshold     Thresh          ....  1.000e-12 Eh
 Primitive CutOff       TCut            ....  1.000e-14 Eh

Convergence Tolerance:
 Convergence Check Mode ConvCheckMode   .... Total+1el-Energy
 Convergence forced     ConvForced      .... 0
 Energy Change          TolE            ....  1.000e-09 Eh
 1-El. energy change                    ....  1.000e-06 Eh
 DIIS Error             TolErr          ....  1.000e-08


Diagonalization of the overlap matrix:
Smallest eigenvalue                        ... 2.778e-03
Time for diagonalization                   ...    0.001 sec
Threshold for overlap eigenvalues          ... 1.000e-08
Number of eigenvalues below threshold      ... 0
Time for construction of square roots      ...    0.001 sec
Producing symmetrization matrix            ... done (   0.000 sec)
Total time needed                          ...    0.002 sec

--------------------
INITIAL GUESS: HCORE
--------------------
Diagonalizing the Hamiltonian                      ... done
Diagonalizing the Hamiltonian                      ... done
Back transforming the eigenvectors                 ... done

-----------------------------
DETECTED OPEN SHELL STRUCTURE
-----------------------------
  There are 0 open shells
  HIGHSPIN case with 0 electrons in 0 orbitals found and Mult=1

-------------------
FINAL ROHF SETTINGS
-------------------
Number of operators             ... 2
  operator   0:   4 orbitals   8 electrons n(mue)= 2.000
  operator   1:   0 orbitals   0 electrons n(mue)= 1.000
Vector coupling coefficients a and b (Zerner convention):
   1.000    1.000           1.000    1.000 
   1.000    1.000           1.000    2.000 

Occupation of irreps:
Operator 0
    Ag occ= 1
   B1g occ= 0
   B2g occ= 0
   B3g occ= 0
    Au occ= 0
   B1u occ= 1
   B2u occ= 1
   B3u occ= 1
Operator 1
    Ag occ= 0
   B1g occ= 0
   B2g occ= 0
   B3g occ= 0
    Au occ= 0
   B1u occ= 0
   B2u occ= 0
   B3u occ= 0

                      -----------------
                      INTIAL GUESS DONE 
                      -----------------
--------------
SCF ITERATIONS
--------------
ITER       Energy         Delta-E        Max-DP      RMS-DP      [F,P]     Damp
               ***  Starting incremental Fock matrix formation  ***
  0    -28.9032797220   0.000000000000 0.76086997  0.01435266  1.5477559 0.7000
                            ****Activating DIIS****
  1    -33.1148522100  -4.211572487990 1.70654481  0.03241531  0.0785897 0.0000
  2    -33.6520790860  -0.537226876011 0.01454163  0.00025867  0.5174986 0.7000
  3    -33.4596599946   0.192419091450 0.01001269  0.00017802  0.5894852 0.7000
  4    -33.4294912564   0.030168738148 0.00684307  0.00012159  0.6000653 0.7000
  5    -33.4095549784   0.019936277999 0.00759198  0.00013548  0.6070968 0.7000
  6    -33.3523104965   0.057244481939 0.18174255  0.00312682  0.6270607 0.7000
  7    -34.3807540417  -1.028443545210 0.50042334  0.00867601  0.0652622 0.0000
  8    -34.4798202698  -0.099066228122 0.00979398  0.00017956  0.2340495 0.7000
  9    -34.5010806807  -0.021260410831 0.01060750  0.00019470  0.2083310 0.7000
 10    -34.5120119409  -0.010931260227 0.01202893  0.00022102  0.1961806 0.7000
 11    -34.5243275873  -0.012315646467 0.02327187  0.00042737  0.1814752 0.7000
 12    -34.5526501324  -0.028322545045 0.06088531  0.00112954  0.1384643 0.7000
 13    -34.5913390310  -0.038688898615 0.14775333  0.00274984  0.0064242 0.0000
 14    -34.6018947160  -0.010555685027 0.00023231  0.00000408  0.0473839 0.0000
 15    -34.6019617466  -0.000067030578 0.00086894  0.00001529  0.0471538 0.0000
 16    -34.6022076117  -0.000245865133 0.00151085  0.00002658  0.0462962 0.0000
 17    -34.6026237926  -0.000416180854 0.00324981  0.00005721  0.0448070 0.0000
 18    -34.6034700698  -0.000846277223 0.05093085  0.00089205  0.0416079 0.0000
 19    -34.6087816817  -0.005311611914 0.00731119  0.00013714  0.0076117 0.0000
               *** Restarting incremental Fock matrix formation ***
                                   *** Resetting DIIS ***
 20    -34.6089099889  -0.000128307132 0.00094798  0.00001701  0.0012375 0.0000
 21    -34.6089187382  -0.000008749346 0.00066521  0.00001236  0.0005171 0.0000
 22    -34.6089208139  -0.000002075673 0.00013487  0.00000259  0.0001034 0.0000
 23    -34.6089208842  -0.000000070347 0.00001561  0.00000036  0.0000144 0.0000
 24    -34.6089208853  -0.000000001095 0.00000576  0.00000013  0.0000031 0.0000
                 **** Energy Check signals convergence ****

               *****************************************************
               *                     SUCCESS                       *
               *           SCF CONVERGED AFTER  25 CYCLES          *
               *****************************************************


----------------
TOTAL SCF ENERGY
----------------

Total Energy       :          -34.60892089 Eh            -941.75662 eV

Components:
Nuclear Repulsion  :            0.00000000 Eh               0.00000 eV
Electronic Energy  :          -34.60892089 Eh            -941.75662 eV
One Electron Energy:          -60.24719383 Eh           -1639.40949 eV
Two Electron Energy:           25.63827294 Eh             697.65287 eV

Virial components:
Potential Energy   :          -62.39577724 Eh           -1697.87542 eV
Kinetic Energy     :           27.78685636 Eh             756.11880 eV
Virial Ratio       :            2.24551408


---------------
SCF CONVERGENCE
---------------

  Last Energy change         ...   -1.0309e-10  Tolerance :   1.0000e-09
  Last MAX-Density change    ...    6.3730e-07  Tolerance :   1.0000e-08
  Last RMS-Density change    ...    1.4763e-08  Tolerance :   1.0000e-09
  Last DIIS Error            ...    4.0173e-07  Tolerance :   1.0000e-08

             **** THE GBW FILE WAS UPDATED (mol.gbw) ****
             **** DENSITY mol.scfp WAS UPDATED ****
             **** ENERGY FILE WAS UPDATED (mol.en.tmp) ****
             **** THE GBW FILE WAS UPDATED (mol.gbw) ****
             **** DENSITY mol.scfp WAS UPDATED ****
----------------
ORBITAL ENERGIES
----------------

  NO   OCC          E(Eh)            E(eV)    Irrep 
   0   2.0000      -1.935966       -52.6803    1-Ag
   1   2.0000      -0.849786       -23.1239    1-B1u
   2   2.0000      -0.849786       -23.1239    1-B2u
   3   2.0000      -0.849786       -23.1239    1-B3u
   4   0.0000       0.222900         6.0654    2-B3u
   5   0.0000       0.222900         6.0654    2-B1u
   6   0.0000       0.222900         6.0654    2-B2u
   7   0.0000       0.345227         9.3941    2-Ag
   8   0.0000       0.803527        21.8651    1-B3g
   9   0.0000       0.803527        21.8651    3-Ag
  10   0.0000       0.803527        21.8651    4-Ag
  11   0.0000       0.803527        21.8651    1-B2g
  12   0.0000       0.803527        21.8651    1-B1g
  13   0.0000       1.037631        28.2354    3-B3u
  14   0.0000       1.037631        28.2354    3-B1u
  15   0.0000       1.037631        28.2354    3-B2u
  16   0.0000       1.933514        52.6136    5-Ag
  17   0.0000       2.493640        67.8554    4-B2u
  18   0.0000       2.493640        67.8554    4-B1u
  19   0.0000       2.493640        67.8554    4-B3u
  20   0.0000       2.493640        67.8554    1-Au
  21   0.0000       2.493640        67.8554    5-B1u
  22   0.0000       2.493640        67.8554    5-B2u
  23   0.0000       2.493640        67.8554    5-B3u
  24   0.0000       2.548468        69.3473    6-Ag
  25   0.0000       2.548468        69.3473    7-Ag
  26   0.0000       2.548468        69.3473    2-B3g
  27   0.0000       2.548468        69.3473    2-B2g
  28   0.0000       2.548468        69.3473    2-B1g
  29   0.0000       3.840765       104.5125    6-B1u
  30   0.0000       3.840765       104.5125    6-B2u
  31   0.0000       3.840765       104.5125    6-B3u
  32   0.0000       5.940144       161.6395    8-Ag
  33   0.0000       5.940144       161.6395    3-B2g
  34   0.0000       5.940144       161.6395    3-B1g
  35   0.0000       5.940144       161.6395    9-Ag
  36   0.0000       5.940144       161.6395    4-B2g
  37   0.0000       5.940144       161.6395    3-B3g
  38   0.0000       5.940144       161.6395    4-B1g
  39   0.0000       5.940144       161.6395   10-Ag
  40   0.0000       5.940144       161.6395    4-B3g
  41   0.0000       7.169190       195.0836    7-B1u
  42   0.0000       7.169190       195.0836    7-B2u
  43   0.0000       7.169190       195.0836    8-B1u
  44   0.0000       7.169190       195.0836    8-B2u
  45   0.0000       7.169190       195.0836    7-B3u
  46   0.0000       7.169190       195.0836    2-Au
  47   0.0000       7.169190       195.0836    8-B3u
  48   0.0000       7.233941       196.8456    5-B2g
  49   0.0000       7.233941       196.8456    5-B3g
  50   0.0000       7.233941       196.8456   11-Ag
  51   0.0000       7.233941       196.8456   12-Ag
  52   0.0000       7.233941       196.8456    5-B1g
  53   0.0000       7.921071       215.5433   13-Ag
  54   0.0000      14.768367       401.8677    9-B2u
  55   0.0000      14.768367       401.8677    9-B1u
  56   0.0000      14.768367       401.8677    9-B3u
  57   0.0000      17.050831       463.9767   14-Ag
  58   0.0000      17.050831       463.9767    6-B2g
  59   0.0000      17.050831       463.9767    6-B1g
  60   0.0000      17.050831       463.9767    7-B2g
  61   0.0000      17.050831       463.9767   15-Ag
  62   0.0000      17.050831       463.9767    6-B3g
  63   0.0000      17.050831       463.9767   16-Ag
  64   0.0000      17.050831       463.9767    7-B3g
  65   0.0000      17.050831       463.9767    7-B1g
  66   0.0000      20.205291       549.8139   10-B1u
  67   0.0000      20.205291       549.8139   10-B2u
  68   0.0000      20.205291       549.8139   10-B3u
  69   0.0000      20.205291       549.8139   11-B2u
  70   0.0000      20.205291       549.8139   11-B1u
  71   0.0000      20.205291       549.8139    3-Au
  72   0.0000      20.205291       549.8139   11-B3u
  73   0.0000      21.522540       585.6581   17-Ag
  74   0.0000      21.522540       585.6581    8-B3g
  75   0.0000      21.522540       585.6581    8-B2g
  76   0.0000      21.522540       585.6581   18-Ag
  77   0.0000      21.522540       585.6581    8-B1g
  78   0.0000      29.382668       799.5431   19-Ag

                    ********************************
                    * MULLIKEN POPULATION ANALYSIS *
                    ********************************

-----------------------
MULLIKEN ATOMIC CHARGES
-----------------------
   0 Ne:   -0.000000
Sum of atomic charges:   -0.0000000

--------------------------------
MULLIKEN REDUCED ORBITAL CHARGES
--------------------------------
  0 Nes       :     2.000000  s :     2.000000
      pz      :     2.000000  p :     6.000000
      px      :     2.000000
      py      :     2.000000
      dz2     :     0.000000  d :     0.000000
      dxz     :     0.000000
      dyz     :     0.000000
      dx2y2   :     0.000000
      dxy     :     0.000000
      f0      :     0.000000  f :     0.000000
      f+1     :     0.000000
      f-1     :     0.000000
      f+2     :     0.000000
      f-2     :     0.000000
      f+3     :     0.000000
      f-3     :     0.000000
      g0      :     0.000000  g :     0.000000
      g+1     :     0.000000
      g-1     :     0.000000
      g+2     :     0.000000
      g-2     :     0.000000
      g+3     :     0.000000
      g-3     :     0.000000
      g+4     :     0.000000
      g-4     :     0.000000


                     *******************************
                     * LOEWDIN POPULATION ANALYSIS *
                     *******************************

----------------------
LOEWDIN ATOMIC CHARGES
----------------------
   0 Ne:   -0.000000

-------------------------------
LOEWDIN REDUCED ORBITAL CHARGES
-------------------------------
  0 Nes       :     2.000000  s :     2.000000
      pz      :     2.000000  p :     6.000000
      px      :     2.000000
      py      :     2.000000
      dz2     :     0.000000  d :     0.000000
      dxz     :     0.000000
      dyz     :     0.000000
      dx2y2   :     0.000000
      dxy     :     0.000000
      f0      :     0.000000  f :     0.000000
      f+1     :     0.000000
      f-1     :     0.000000
      f+2     :     0.000000
      f-2     :     0.000000
      f+3     :     0.000000
      f-3     :     0.000000
      g0      :     0.000000  g :     0.000000
      g+1     :     0.000000
      g-1     :     0.000000
      g+2     :     0.000000
      g-2     :     0.000000
      g+3     :     0.000000
      g-3     :     0.000000
      g+4     :     0.000000
      g-4     :     0.000000


                      *****************************
                      * MAYER POPULATION ANALYSIS *
                      *****************************

  NA   - Mulliken gross atomic population
  ZA   - Total nuclear charge
  QA   - Mulliken gross atomic charge
  VA   - Mayer's total valence
  BVA  - Mayer's bonded valence
  FA   - Mayer's free valence

  ATOM       NA         ZA         QA         VA         BVA        FA
  0 Ne     8.0000     8.0000    -0.0000    -0.0000     0.0000    -0.0000

  Mayer bond orders larger than 0.100000



Warning: MO coefficients are modified such that the real solid harmonic m components
have the correct order within each shell (0, +1, -1, +2, -2, ...) and all s orbitals
come before all p orbitals etc. (with increasing orbital energy within each block of given angular momentum).

--------------------------
ATOM BASIS FOR ELEMENT Ne
--------------------------
 NewGTO Ne
 S 14
    1         92.690600000000        -0.001977935448
    2         57.820870000000         0.016485461976
    3         35.950860000000        -0.075146547495
    4         22.468390000000         0.207373232105
    5         14.047720000000        -0.253878714338
    6          4.844960000000        -0.065781853124
    7          2.608010000000         0.235612310486
    8          1.162300000000         0.458690030055
    9          0.523880000000         0.382163527597
   10          0.230330000000         0.096128862710
   11          3.035200000000        -0.000008099338
   12          1.080900000000        -0.000113132589
   13          0.384900000000         0.000183081216
   14          0.175100000000        -0.000026401075
 S 14
    1         92.690600000000        -0.000891830780
    2         57.820870000000         0.007433125500
    3         35.950860000000        -0.033882806513
    4         22.468390000000         0.093502460642
    5         14.047720000000        -0.114471304971
    6          4.844960000000        -0.029660361997
    7          2.608010000000         0.106235171070
    8          1.162300000000         0.206818623824
    9          0.523880000000         0.172313609790
   10          0.230330000000         0.043343516956
   11          3.035200000000         0.096213112436
   12          1.080900000000        -0.469950792872
   13          0.384900000000         1.640169817245
   14          0.175100000000        -2.206134967871
 S 14
    1         92.690600000000        -0.000429365684
    2         57.820870000000         0.003578626220
    3         35.950860000000        -0.016312639923
    4         22.468390000000         0.045016104902
    5         14.047720000000        -0.055111408165
    6          4.844960000000        -0.014279773579
    7          2.608010000000         0.051146179174
    8          1.162300000000         0.099571378142
    9          0.523880000000         0.082959180765
   10          0.230330000000         0.020867432715
   11          3.035200000000        -0.372963417446
   12          1.080900000000         2.557689363386
   13          0.384900000000        -4.263569781145
   14          0.175100000000         2.053440528065
 S 14
    1         92.690600000000        -0.009522043143
    2         57.820870000000         0.079363196793
    3         35.950860000000        -0.361765429808
    4         22.468390000000         0.998322197682
    5         14.047720000000        -1.222205746952
    6          4.844960000000        -0.316682551125
    7          2.608010000000         1.134268860149
    8          1.162300000000         2.208194539915
    9          0.523880000000         1.839785824193
   10          0.230330000000         0.462777073525
   11          3.035200000000         2.540663976840
   12          1.080900000000        -7.086345615067
   13          0.384900000000         1.160809829358
   14          0.175100000000        -1.143664061205
 S 14
    1         92.690600000000        -0.026329419552
    2         57.820870000000         0.219447325951
    3         35.950860000000        -1.000318275985
    4         22.468390000000         2.760462601949
    5         14.047720000000        -3.379523428590
    6          4.844960000000        -0.875659522647
    7          2.608010000000         3.136368976137
    8          1.162300000000         6.105882909765
    9          0.523880000000         5.087195271301
   10          0.230330000000         1.279625763577
   11          3.035200000000         0.259922138233
   12          1.080900000000       -10.195129812188
   13          0.384900000000        -3.323861412435
   14          0.175100000000        -0.681779878499
 P 14
    1         83.629650000000        -0.000645980029
    2         52.265640000000         0.005289836456
    3         32.639646000000        -0.026947166886
    4         19.127791000000         0.081433482355
    5          6.765389000000         0.141821615361
    6          2.985510000000         0.246686373301
    7          1.374791000000         0.307975478451
    8          0.639715000000         0.287169121713
    9          0.294830000000         0.178306487373
   10          0.130030000000         0.043503655016
   11          2.251700000000        -0.000004751318
   12          0.761500000000         0.000030295802
   13          0.257500000000        -0.000018874167
   14          0.090200000000         0.000057734875
 P 14
    1         83.629650000000        -0.000118606727
    2         52.265640000000         0.000971253233
    3         32.639646000000        -0.004947699834
    4         19.127791000000         0.014951791734
    5          6.765389000000         0.026039501135
    6          2.985510000000         0.045293448966
    7          1.374791000000         0.056546583540
    8          0.639715000000         0.052726382025
    9          0.294830000000         0.032738394416
   10          0.130030000000         0.007987593931
   11          2.251700000000         0.034367502836
   12          0.761500000000        -0.097686701476
   13          0.257500000000         0.464427238730
   14          0.090200000000        -1.289005050053
 P 14
    1         83.629650000000        -0.000426142610
    2         52.265640000000         0.003489619823
    3         32.639646000000        -0.017776611532
    4         19.127791000000         0.053720355376
    5          6.765389000000         0.093557433096
    6          2.985510000000         0.162735023199
    7          1.374791000000         0.203166457716
    8          0.639715000000         0.189440839632
    9          0.294830000000         0.117625914925
   10          0.130030000000         0.028698659814
   11          2.251700000000        -0.138047689519
   12          0.761500000000         0.542896531158
   13          0.257500000000        -2.053516680831
   14          0.090200000000         0.900590056754
 P 14
    1         83.629650000000        -0.000634139669
    2         52.265640000000         0.005192877472
    3         32.639646000000        -0.026453244256
    4         19.127791000000         0.079940863857
    5          6.765389000000         0.139222124827
    6          2.985510000000         0.242164785456
    7          1.374791000000         0.302330504384
    8          0.639715000000         0.281905513542
    9          0.294830000000         0.175038254778
   10          0.130030000000         0.042706263595
   11          2.251700000000         0.786459408515
   12          0.761500000000        -2.461335148108
   13          0.257500000000         1.073482111624
   14          0.090200000000        -0.445931850467
 P 14
    1         83.629650000000        -0.004056039448
    2         52.265640000000         0.033214316846
    3         32.639646000000        -0.169198376250
    4         19.127791000000         0.511312118460
    5          6.765389000000         0.890482741204
    6          2.985510000000         1.548917330804
    7          1.374791000000         1.933745061200
    8          0.639715000000         1.803104174506
    9          0.294830000000         1.119567346957
   10          0.130030000000         0.273154792888
   11          2.251700000000        -4.218994133669
   12          0.761500000000        -1.495447344085
   13          0.257500000000        -1.864673111339
   14          0.090200000000         0.098991108232
 D 4
    1          6.564600000000        -0.007207231070
    2          2.218300000000         0.070997066698
    3          0.749600000000        -0.194401128821
    4          0.265000000000         1.103861939788
 D 4
    1          6.564600000000         0.054504351454
    2          2.218300000000        -0.089132083736
    3          0.749600000000         1.346181493620
    4          0.265000000000        -0.733375465811
 D 4
    1          6.564600000000        -0.037812594313
    2          2.218300000000         1.370701039517
    3          0.749600000000        -1.078106972710
    4          0.265000000000         0.388343722065
 D 4
    1          6.564600000000         1.351094357213
    2          2.218300000000        -1.126125898109
    3          0.749600000000         0.539876500714
    4          0.265000000000        -0.183490117207
 F 3
    1          4.537300000000         0.044290869704
    2          1.503600000000        -0.253675786672
    3          0.625000000000         1.145558649282
 F 3
    1          4.537300000000        -0.097876783436
    2          1.503600000000         1.375951603866
    3          0.625000000000        -0.720737677963
 F 3
    1          4.537300000000         1.223865521253
    2          1.503600000000        -0.800359250300
    3          0.625000000000         0.324479837299
 G 2
    1          2.972700000000         0.169483513837
    2          1.177000000000        -1.086011121276
 G 2
    1          2.972700000000         1.200509558155
    2          1.177000000000        -0.539006219956
 end
-------------------------------------------
RADIAL EXPECTATION VALUES <R**-3> TO <R**3>
-------------------------------------------
   0 :     0.000000     2.642573     1.388917     0.894505     0.965789     1.237930
   1 :     0.000000     0.333564     0.435100     2.745097     8.142557    25.519124
   2 :     0.000000     1.247429     0.796818     1.887490     4.616738    13.536510
   3 :     0.000000     4.808096     1.645219     0.997635     1.560107     3.516808
   4 :     0.000000    32.848993     4.338053     0.403173     0.321070     0.477383
   5 :     9.114092     2.912970     1.422837     0.966595     1.230795     1.985067
   6 :     9.114092     2.912970     1.422837     0.966595     1.230795     1.985067
   7 :     9.114092     2.912970     1.422837     0.966595     1.230795     1.985067
   8 :     0.354647     0.168418     0.293430     4.035116    17.488054    80.103237
   9 :     0.354647     0.168418     0.293430     4.035116    17.488054    80.103237
  10 :     0.354647     0.168418     0.293430     4.035116    17.488054    80.103237
  11 :     2.778277     0.887222     0.626715     2.527461     8.269998    32.895862
  12 :     2.778277     0.887222     0.626715     2.527461     8.269998    32.895862
  13 :     2.778277     0.887222     0.626715     2.527461     8.269998    32.895862
  14 :     9.850189     2.767081     1.253806     1.371852     2.915780     8.902467
  15 :     9.850189     2.767081     1.253806     1.371852     2.915780     8.902467
  16 :     9.850189     2.767081     1.253806     1.371852     2.915780     8.902467
  17 :    56.914275    10.377643     2.628791     0.669442     0.870026     2.109462
  18 :    56.914275    10.377643     2.628791     0.669442     0.870026     2.109462
  19 :    56.914275    10.377643     2.628791     0.669442     0.870026     2.109462
  20 :     0.096479     0.185922     0.411612     2.607994     7.218574   105.302002
  21 :     0.096479     0.185922     0.411612     2.607994     7.218574   105.302002
  22 :     0.096479     0.185922     0.411612     2.607994     7.218574   105.302002
  23 :     0.096479     0.185922     0.411612     2.607994     7.218574   105.302002
  24 :     0.096479     0.185922     0.411612     2.607994     7.218574   105.302002
  25 :     0.634873     0.616802     0.723898     1.649964     3.329417    40.887741
  26 :     0.634873     0.616802     0.723898     1.649964     3.329417    40.887741
  27 :     0.634873     0.616802     0.723898     1.649964     3.329417    40.887741
  28 :     0.634873     0.616802     0.723898     1.649964     3.329417    40.887741
  29 :     0.634873     0.616802     0.723898     1.649964     3.329417    40.887741
  30 :     2.832064     1.720044     1.205443     1.046198     1.482608    14.418440
  31 :     2.832064     1.720044     1.205443     1.046198     1.482608    14.418440
  32 :     2.832064     1.720044     1.205443     1.046198     1.482608    14.418440
  33 :     2.832064     1.720044     1.205443     1.046198     1.482608    14.418440
  34 :     2.832064     1.720044     1.205443     1.046198     1.482608    14.418440
  35 :    15.604335     5.315232     2.107750     0.615335     0.556599     4.018163
  36 :    15.604335     5.315232     2.107750     0.615335     0.556599     4.018163
  37 :    15.604335     5.315232     2.107750     0.615335     0.556599     4.018163
  38 :    15.604335     5.315232     2.107750     0.615335     0.556599     4.018163
  39 :    15.604335     5.315232     2.107750     0.615335     0.556599     4.018163
  40 :     0.178518     0.298602     0.532705     1.963506     4.018693    59.864741
  41 :     0.178518     0.298602     0.532705     1.963506     4.018693    59.864741
  42 :     0.178518     0.298602     0.532705     1.963506     4.018693    59.864741
  43 :     0.178518     0.298602     0.532705     1.963506     4.018693    59.864741
  44 :     0.178518     0.298602     0.532705     1.963506     4.018693    59.864741
  45 :     0.178518     0.298602     0.532705     1.963506     4.018693    59.864741
  46 :     0.178518     0.298602     0.532705     1.963506     4.018693    59.864741
  47 :     0.855809     0.833372     0.874110     1.276481     1.867196    22.235065
  48 :     0.855809     0.833372     0.874110     1.276481     1.867196    22.235065
  49 :     0.855809     0.833372     0.874110     1.276481     1.867196    22.235065
  50 :     0.855809     0.833372     0.874110     1.276481     1.867196    22.235065
  51 :     0.855809     0.833372     0.874110     1.276481     1.867196    22.235065
  52 :     0.855809     0.833372     0.874110     1.276481     1.867196    22.235065
  53 :     0.855809     0.833372     0.874110     1.276481     1.867196    22.235065
  54 :     5.091452     2.677112     1.549073     0.750222     0.701498     6.094968
  55 :     5.091452     2.677112     1.549073     0.750222     0.701498     6.094968
  56 :     5.091452     2.677112     1.549073     0.750222     0.701498     6.094968
  57 :     5.091452     2.677112     1.549073     0.750222     0.701498     6.094968
  58 :     5.091452     2.677112     1.549073     0.750222     0.701498     6.094968
  59 :     5.091452     2.677112     1.549073     0.750222     0.701498     6.094968
  60 :     5.091452     2.677112     1.549073     0.750222     0.701498     6.094968
  61 :     0.334327     0.462977     0.667410     1.555097     2.506353    29.263511
  62 :     0.334327     0.462977     0.667410     1.555097     2.506353    29.263511
  63 :     0.334327     0.462977     0.667410     1.555097     2.506353    29.263511
  64 :     0.334327     0.462977     0.667410     1.555097     2.506353    29.263511
  65 :     0.334327     0.462977     0.667410     1.555097     2.506353    29.263511
  66 :     0.334327     0.462977     0.667410     1.555097     2.506353    29.263511
  67 :     0.334327     0.462977     0.667410     1.555097     2.506353    29.263511
  68 :     0.334327     0.462977     0.667410     1.555097     2.506353    29.263511
  69 :     0.334327     0.462977     0.667410     1.555097     2.506353    29.263511
  70 :     1.806175     1.381334     1.132202     0.965670     1.042196     8.983093
  71 :     1.806175     1.381334     1.132202     0.965670     1.042196     8.983093
  72 :     1.806175     1.381334     1.132202     0.965670     1.042196     8.983093
  73 :     1.806175     1.381334     1.132202     0.965670     1.042196     8.983093
  74 :     1.806175     1.381334     1.132202     0.965670     1.042196     8.983093
  75 :     1.806175     1.381334     1.132202     0.965670     1.042196     8.983093
  76 :     1.806175     1.381334     1.132202     0.965670     1.042196     8.983093
  77 :     1.806175     1.381334     1.132202     0.965670     1.042196     8.983093
  78 :     1.806175     1.381334     1.132202     0.965670     1.042196     8.983093
-------
TIMINGS
-------

Total SCF time: 0 days 0 hours 0 min 2 sec 

Total time                  ....       2.401 sec
Sum of individual times     ....       2.174 sec  ( 90.5%)

Fock matrix formation       ....       2.055 sec  ( 85.6%)
Diagonalization             ....       0.047 sec  (  1.9%)
Density matrix formation    ....       0.008 sec  (  0.3%)
Population analysis         ....       0.009 sec  (  0.4%)
Initial guess               ....       0.001 sec  (  0.0%)
Orbital Transformation      ....       0.000 sec  (  0.0%)
Orbital Orthonormalization  ....       0.000 sec  (  0.0%)
DIIS solution               ....       0.054 sec  (  2.2%)

Maximum memory used throughout the entire SCF-calculation: 228.3 MB

-------------------------   --------------------
FINAL SINGLE POINT ENERGY       -34.608920885431
-------------------------   --------------------


                            ***************************************
                            *     ORCA property calculations      *
                            ***************************************

                                    ---------------------
                                    Active property flags
                                    ---------------------
   (+) Dipole Moment


------------------------------------------------------------------------------
                       ORCA ELECTRIC PROPERTIES CALCULATION
------------------------------------------------------------------------------

Dipole Moment Calculation                       ... on
Quadrupole Moment Calculation                   ... off
Polarizability Calculation                      ... off
GBWName                                         ... mol.gbw
Electron density                                ... mol.scfp
The origin for moment calculation is the CENTER OF MASS  = ( 0.000000,  0.000000  0.000000)

-------------
DIPOLE MOMENT
-------------
                                X             Y             Z
Electronic contribution:     -0.00000       0.00000       0.00000
Nuclear contribution   :      0.00000       0.00000       0.00000
                        -----------------------------------------
Total Dipole Moment    :     -0.00000       0.00000       0.00000
                        -----------------------------------------
Magnitude (a.u.)       :      0.00000
Magnitude (Debye)      :      0.00000



--------------------
Rotational spectrum 
--------------------
 
Rotational constants in cm-1:     0.000000     0.000000     0.000000 
Rotational constants in MHz :     0.000000     0.000000     0.000000 

 Dipole components along the rotational axes: 
x,y,z [a.u.] :    -0.000000     0.000000     0.000000 
x,y,z [Debye]:    -0.000000     0.000000     0.000000 

 

Timings for individual modules:

Sum of individual times         ...        3.522 sec (=   0.059 min)
GTO integral calculation        ...        0.703 sec (=   0.012 min)  19.9 %
SCF iterations                  ...        2.820 sec (=   0.047 min)  80.1 %
                             ****ORCA TERMINATED NORMALLY****
TOTAL RUN TIME: 0 days 0 hours 0 minutes 4 seconds 76 msec
