[Molden Format]
[Atoms] (Angs)
  C      1    6      0.09076617     -0.12573586      0.00000000
  C      2    6     -1.39118075      0.11558939      0.00000000
  O      3    8      0.63502979     -1.20006749      0.00000000
  O      4    8      0.78134765      1.03885833     -0.00000000
  H      5    1      1.71507330      0.79251794     -0.00000000
  H      6    1     -1.91251002     -0.83603319      0.00000000
  H      7    1     -1.66554767      0.69703369      0.87958523
  H      8    1     -1.66554767      0.69703369     -0.87958523
[GTO]
1    0
S    8    1.000000
   3.39800000E+04    9.20400000E-05 
   5.08900000E+03    6.99910000E-04 
   1.15700000E+03    3.69300000E-03 
   3.26600000E+02    1.51818100E-02 
   1.06100000E+02    5.21403500E-02 
   3.81100000E+01    1.38274510E-01 
   1.47500000E+01    2.68772030E-01 
   6.03500000E+00    2.28418390E-01 
S    8    1.000000
   3.39800000E+04    3.40000000E-07 
   5.08900000E+03   -1.35000000E-06 
   3.26600000E+02   -5.90100000E-05 
   1.06100000E+02   -2.61180000E-04 
   3.81100000E+01   -2.90391000E-03 
   1.47500000E+01   -1.22067500E-02 
   6.03500000E+00   -5.66064900E-02 
   2.53000000E+00   -7.18816800E-02 
S    1    1.000000
   7.35500000E-01    1.00000000E+00 
S    1    1.000000
   2.90500000E-01    1.00000000E+00 
S    1    1.000000
   1.11100000E-01    1.00000000E+00 
P    3    1.000000
   3.45100000E+01    5.37800000E-03 
   7.91500000E+00    3.61320000E-02 
   2.36800000E+00    1.42493000E-01 
P    1    1.000000
   8.13200000E-01    1.00000000E+00 
P    1    1.000000
   2.89000000E-01    1.00000000E+00 
P    1    1.000000
   1.00700000E-01    1.00000000E+00 
D    1    1.000000
   1.84800000E+00    1.00000000E+00 
D    1    1.000000
   6.49000000E-01    1.00000000E+00 
D    1    1.000000
   2.28000000E-01    1.00000000E+00 
F    1    1.000000
   1.41900000E+00    1.00000000E+00 
F    1    1.000000
   4.85000000E-01    1.00000000E+00 
G    1    1.000000
   1.01100000E+00    1.00000000E+00 

2    0
S    8    1.000000
   3.39800000E+04    9.20400000E-05 
   5.08900000E+03    6.99910000E-04 
   1.15700000E+03    3.69300000E-03 
   3.26600000E+02    1.51818100E-02 
   1.06100000E+02    5.21403500E-02 
   3.81100000E+01    1.38274510E-01 
   1.47500000E+01    2.68772030E-01 
   6.03500000E+00    2.28418390E-01 
S    8    1.000000
   3.39800000E+04    3.40000000E-07 
   5.08900000E+03   -1.35000000E-06 
   3.26600000E+02   -5.90100000E-05 
   1.06100000E+02   -2.61180000E-04 
   3.81100000E+01   -2.90391000E-03 
   1.47500000E+01   -1.22067500E-02 
   6.03500000E+00   -5.66064900E-02 
   2.53000000E+00   -7.18816800E-02 
S    1    1.000000
   7.35500000E-01    1.00000000E+00 
S    1    1.000000
   2.90500000E-01    1.00000000E+00 
S    1    1.000000
   1.11100000E-01    1.00000000E+00 
P    3    1.000000
   3.45100000E+01    5.37800000E-03 
   7.91500000E+00    3.61320000E-02 
   2.36800000E+00    1.42493000E-01 
P    1    1.000000
   8.13200000E-01    1.00000000E+00 
P    1    1.000000
   2.89000000E-01    1.00000000E+00 
P    1    1.000000
   1.00700000E-01    1.00000000E+00 
D    1    1.000000
   1.84800000E+00    1.00000000E+00 
D    1    1.000000
   6.49000000E-01    1.00000000E+00 
D    1    1.000000
   2.28000000E-01    1.00000000E+00 
F    1    1.000000
   1.41900000E+00    1.00000000E+00 
F    1    1.000000
   4.85000000E-01    1.00000000E+00 
G    1    1.000000
   1.01100000E+00    1.00000000E+00 

3    0
S    8    1.000000
   6.14200000E+04    9.15600000E-05 
   9.19900000E+03    6.97330000E-04 
   2.09100000E+03    3.67901000E-03 
   5.90900000E+02    1.50670600E-02 
   1.92300000E+02    5.16674200E-02 
   6.93200000E+01    1.35843520E-01 
   2.69700000E+01    2.60704420E-01 
   1.11000000E+01    1.96456920E-01 
S    8    1.000000
   6.14200000E+04    6.10000000E-07 
   9.19900000E+03   -1.80000000E-06 
   5.90900000E+02   -1.08610000E-04 
   1.92300000E+02   -4.94110000E-04 
   6.93200000E+01   -5.43605000E-03 
   2.69700000E+01   -2.33243000E-02 
   1.11000000E+01   -1.03719380E-01 
   4.68200000E+00   -1.10942760E-01 
S    1    1.000000
   1.42800000E+00    1.00000000E+00 
S    1    1.000000
   5.54700000E-01    1.00000000E+00 
S    1    1.000000
   2.06700000E-01    1.00000000E+00 
P    3    1.000000
   6.34200000E+01    6.04400000E-03 
   1.46600000E+01    4.17990000E-02 
   4.45900000E+00    1.61143000E-01 
P    1    1.000000
   1.53100000E+00    1.00000000E+00 
P    1    1.000000
   5.30200000E-01    1.00000000E+00 
P    1    1.000000
   1.75000000E-01    1.00000000E+00 
D    1    1.000000
   3.77500000E+00    1.00000000E+00 
D    1    1.000000
   1.30000000E+00    1.00000000E+00 
D    1    1.000000
   4.44000000E-01    1.00000000E+00 
F    1    1.000000
   2.66600000E+00    1.00000000E+00 
F    1    1.000000
   8.59000000E-01    1.00000000E+00 
G    1    1.000000
   1.84600000E+00    1.00000000E+00 

4    0
S    8    1.000000
   6.14200000E+04    9.15600000E-05 
   9.19900000E+03    6.97330000E-04 
   2.09100000E+03    3.67901000E-03 
   5.90900000E+02    1.50670600E-02 
   1.92300000E+02    5.16674200E-02 
   6.93200000E+01    1.35843520E-01 
   2.69700000E+01    2.60704420E-01 
   1.11000000E+01    1.96456920E-01 
S    8    1.000000
   6.14200000E+04    6.10000000E-07 
   9.19900000E+03   -1.80000000E-06 
   5.90900000E+02   -1.08610000E-04 
   1.92300000E+02   -4.94110000E-04 
   6.93200000E+01   -5.43605000E-03 
   2.69700000E+01   -2.33243000E-02 
   1.11000000E+01   -1.03719380E-01 
   4.68200000E+00   -1.10942760E-01 
S    1    1.000000
   1.42800000E+00    1.00000000E+00 
S    1    1.000000
   5.54700000E-01    1.00000000E+00 
S    1    1.000000
   2.06700000E-01    1.00000000E+00 
P    3    1.000000
   6.34200000E+01    6.04400000E-03 
   1.46600000E+01    4.17990000E-02 
   4.45900000E+00    1.61143000E-01 
P    1    1.000000
   1.53100000E+00    1.00000000E+00 
P    1    1.000000
   5.30200000E-01    1.00000000E+00 
P    1    1.000000
   1.75000000E-01    1.00000000E+00 
D    1    1.000000
   3.77500000E+00    1.00000000E+00 
D    1    1.000000
   1.30000000E+00    1.00000000E+00 
D    1    1.000000
   4.44000000E-01    1.00000000E+00 
F    1    1.000000
   2.66600000E+00    1.00000000E+00 
F    1    1.000000
   8.59000000E-01    1.00000000E+00 
G    1    1.000000
   1.84600000E+00    1.00000000E+00 

5    0
S    3    1.000000
   8.26400000E+01    2.00600000E-03 
   1.24100000E+01    1.53430000E-02 
   2.82400000E+00    7.55790000E-02 
S    1    1.000000
   7.97700000E-01    1.00000000E+00 
S    1    1.000000
   2.58100000E-01    1.00000000E+00 
S    1    1.000000
   8.98900000E-02    1.00000000E+00 
P    1    1.000000
   2.29200000E+00    1.00000000E+00 
P    1    1.000000
   8.38000000E-01    1.00000000E+00 
P    1    1.000000
   2.92000000E-01    1.00000000E+00 
D    1    1.000000
   2.06200000E+00    1.00000000E+00 
D    1    1.000000
   6.62000000E-01    1.00000000E+00 
F    1    1.000000
   1.39700000E+00    1.00000000E+00 

6    0
S    3    1.000000
   8.26400000E+01    2.00600000E-03 
   1.24100000E+01    1.53430000E-02 
   2.82400000E+00    7.55790000E-02 
S    1    1.000000
   7.97700000E-01    1.00000000E+00 
S    1    1.000000
   2.58100000E-01    1.00000000E+00 
S    1    1.000000
   8.98900000E-02    1.00000000E+00 
P    1    1.000000
   2.29200000E+00    1.00000000E+00 
P    1    1.000000
   8.38000000E-01    1.00000000E+00 
P    1    1.000000
   2.92000000E-01    1.00000000E+00 
D    1    1.000000
   2.06200000E+00    1.00000000E+00 
D    1    1.000000
   6.62000000E-01    1.00000000E+00 
F    1    1.000000
   1.39700000E+00    1.00000000E+00 

7    0
S    3    1.000000
   8.26400000E+01    2.00600000E-03 
   1.24100000E+01    1.53430000E-02 
   2.82400000E+00    7.55790000E-02 
S    1    1.000000
   7.97700000E-01    1.00000000E+00 
S    1    1.000000
   2.58100000E-01    1.00000000E+00 
S    1    1.000000
   8.98900000E-02    1.00000000E+00 
P    1    1.000000
   2.29200000E+00    1.00000000E+00 
P    1    1.000000
   8.38000000E-01    1.00000000E+00 
P    1    1.000000
   2.92000000E-01    1.00000000E+00 
D    1    1.000000
   2.06200000E+00    1.00000000E+00 
D    1    1.000000
   6.62000000E-01    1.00000000E+00 
F    1    1.000000
   1.39700000E+00    1.00000000E+00 

8    0
S    3    1.000000
   8.26400000E+01    2.00600000E-03 
   1.24100000E+01    1.53430000E-02 
   2.82400000E+00    7.55790000E-02 
S    1    1.000000
   7.97700000E-01    1.00000000E+00 
S    1    1.000000
   2.58100000E-01    1.00000000E+00 
S    1    1.000000
   8.98900000E-02    1.00000000E+00 
P    1    1.000000
   2.29200000E+00    1.00000000E+00 
P    1    1.000000
   8.38000000E-01    1.00000000E+00 
P    1    1.000000
   2.92000000E-01    1.00000000E+00 
D    1    1.000000
   2.06200000E+00    1.00000000E+00 
D    1    1.000000
   6.62000000E-01    1.00000000E+00 
F    1    1.000000
   1.39700000E+00    1.00000000E+00 

[MO]
Sym=X
Ene= -20.610946
Spin=Alpha
Occup=1
     1   -1.541710320477e-06
     2    4.299721989161e-05
     3   -1.048684670870e-04
     4    4.522339373947e-04
     5   -8.136734421233e-04
     6    6.969584349003e-06
     7    4.007745377252e-06
     8   -3.974183826706e-16
     9    1.058424241697e-04
    10    8.056223819897e-05
    11    2.114196989204e-15
    12   -1.140082664962e-04
    13    9.180061828404e-04
    14   -1.408981031891e-14
    15   -1.099781294723e-04
    16   -5.495284882763e-04
    17   -4.884091764937e-15
    18    8.946810341363e-06
    19   -2.009223296078e-16
    20   -2.889434788574e-16
    21    1.433371889319e-05
    22    4.045919836209e-06
    23   -1.398072986575e-04
    24   -1.201825402706e-15
    25    3.240999624980e-15
    26   -1.888855007078e-04
    27    1.911581863446e-04
    28   -2.646133816101e-05
    29    2.154795172487e-15
    30    2.804044656008e-15
    31   -5.241190305687e-04
    32   -1.086731494453e-04
    33   -8.833823735690e-17
    34   -3.479277261263e-06
    35    3.989476112698e-06
    36    6.251947007310e-16
    37    1.873641511538e-16
    38   -2.272604088528e-05
    39    5.290337175725e-06
    40    2.909763155792e-15
    41   -4.023210633832e-06
    42   -1.796342980337e-04
    43   -1.813408601612e-16
    44    5.434122085418e-15
    45   -8.668585908338e-05
    46   -1.187281235889e-04
    47    8.416811318994e-07
    48    2.808729489360e-16
    49   -7.783556217700e-16
    50    1.034924760083e-05
    51   -3.224974843453e-06
    52    2.320453111750e-16
    53   -3.472109811782e-16
    54    1.976817090908e-05
    55   -3.242612730453e-05
    56    1.819101521686e-06
    57    1.292963281556e-06
    58    2.684999862832e-05
    59    1.125289955020e-04
    60   -1.018293303398e-04
    61   -9.170367475958e-06
    62   -8.339912219808e-06
    63    3.189070112862e-16
    64    3.636678063166e-05
    65    5.934249424916e-05
    66    3.494586889828e-16
    67   -4.252883342376e-05
    68   -9.087808560527e-05
    69    3.457095581044e-14
    70    1.556422744135e-05
    71    1.734767145992e-05
    72    1.321988312988e-14
    73    4.071440278441e-06
    74   -1.263451284783e-15
    75   -9.530162507136e-16
    76    6.364591300871e-06
    77    1.352864139797e-06
    78   -2.488371468775e-05
    79    5.899391354114e-15
    80    5.264401034986e-15
    81   -3.143749854109e-05
    82    1.403349497591e-05
    83    2.068639212473e-05
    84    1.475682629203e-14
    85    1.044681351584e-14
    86   -1.339422172485e-04
    87   -3.731233070422e-04
    88    2.676649524312e-16
    89    1.885999132307e-06
    90   -3.579365139486e-06
    91   -1.330344547123e-15
    92    4.393170262252e-16
    93    2.120336888955e-06
    94    1.366654500908e-05
    95    6.896440612591e-16
    96    4.262673516013e-05
    97    7.311364036531e-06
    98   -5.463836848241e-15
    99    9.484117796123e-15
   100    8.069077728131e-06
   101   -7.431393426755e-05
   102   -6.644811310639e-08
   103    8.810849422833e-16
   104    1.654392565325e-15
   105    2.729962444384e-06
   106    1.086535705525e-05
   107    1.239946120497e-16
   108   -1.774101375950e-15
   109    7.427897627708e-06
   110   -7.527502335667e-06
   111   -1.655142514017e-04
   112    1.212629110601e-04
   113   -3.115743592054e-05
   114    1.276881330815e-04
   115   -3.131779947282e-05
   116   -1.090329831991e-06
   117   -5.795016483812e-06
   118    1.530540757736e-16
   119   -1.149761582540e-05
   120    4.715468492454e-07
   121   -1.581239888324e-15
   122   -4.308411276301e-05
   123    5.860473024037e-05
   124    6.719879347593e-15
   125    1.183888877314e-04
   126    1.909219443334e-04
   127    4.045785215804e-15
   128   -9.291481386696e-07
   129    4.412076666292e-17
   130    2.415478429380e-16
   131   -2.291392453595e-06
   132   -3.555248179387e-07
   133    5.815776474430e-07
   134   -4.137280814793e-17
   135   -2.881999427484e-16
   136    6.824664611082e-06
   137   -4.759234506857e-06
   138   -4.416019703732e-05
   139   -1.722819963150e-15
   140    6.349998906010e-15
   141   -2.906120003547e-05
   142    1.472115857595e-05
   143    3.318032533443e-16
   144   -4.241699628593e-06
   145    1.782725135854e-07
   146    1.752032197207e-16
   147    5.512986861447e-16
   148    4.142031662097e-06
   149   -1.378962393141e-06
   150   -2.182467738873e-15
   151    1.208433202834e-05
   152   -4.517377481102e-06
   153   -1.352713152012e-15
   154   -1.213707642515e-15
   155   -1.564937435342e-05
   156   -8.617437207860e-06
   157   -7.224011295383e-07
   158    2.537105346114e-16
   159   -6.375392265554e-16
   160    1.834701179743e-07
   161   -1.035450738170e-07
   162    2.147940028965e-16
   163    3.874505783567e-16
   164    6.057653279187e-06
   165    5.440048992957e-06
   166    5.862957559003e-01
   167   -4.471843712545e-01
   168    1.903681985434e-02
   169   -4.849130170288e-03
   170    1.140385241615e-03
   171    5.956348662393e-04
   172   -1.414084644363e-03
   173   -1.579066365386e-16
   174   -2.093433390568e-04
   175    2.890360985390e-04
   176    3.763187390150e-17
   177   -2.759111605248e-04
   178    3.109620437152e-04
   179    1.127753933186e-15
   180   -5.022301933355e-04
   181   -2.667578936096e-04
   182    3.648268233204e-15
   183   -8.685946081043e-05
   184   -4.506585922482e-16
   185   -2.365790947299e-16
   186    3.128227228440e-05
   187    1.290919597375e-05
   188    2.107163821208e-04
   189    1.076390318485e-15
   190   -2.324875153131e-17
   191   -9.958488271387e-05
   192   -3.072427858716e-05
   193    1.901269579649e-04
   194    4.454342187610e-15
   195   -8.551752102785e-16
   196   -5.138434525828e-04
   197   -6.626507507652e-05
   198    2.028890209973e-16
   199   -1.590276687125e-05
   200    1.763086748722e-05
   201   -2.676345982114e-16
   202    2.351708098108e-16
   203    6.029480426965e-05
   204   -3.911305543999e-05
   205   -7.313614132932e-16
   206    3.894994838079e-05
   207   -2.199343420817e-05
   208    2.333099154834e-15
   209   -1.908100727583e-15
   210   -8.554943515219e-05
   211    1.592431379789e-04
   212   -1.619306616213e-06
   213   -4.647098563741e-16
   214    1.424417521787e-16
   215    5.612905749348e-06
   216    1.588549427055e-06
   217   -4.796234066577e-17
   218   -3.504338488982e-16
   219    9.781642410017e-06
   220   -7.908820589255e-06
   221   -9.611827114663e-07
   222    7.458821364405e-04
   223    1.271013176455e-03
   224    8.170818614864e-05
   225    2.070106866904e-05
   226   -1.416393823352e-05
   227    1.037586617515e-15
   228   -5.530332624433e-04
   229    1.768851231813e-04
   230   -4.907271364169e-15
   231   -5.482167032114e-04
   232    1.866468390511e-04
   233   -2.755549796316e-15
   234   -1.569283064934e-06
   235    3.448643359548e-17
   236   -3.501074871657e-16
   237    2.604319278330e-05
   238    2.784678572489e-06
   239   -1.106349534491e-04
   240    3.507014107244e-15
   241   -3.220346738265e-16
   242    1.479804575429e-04
   243   -1.035148242144e-04
   244    9.868208327127e-16
   245    2.882855319553e-06
   246    1.013853135760e-05
   247   -1.053280044433e-15
   248    3.179975559812e-16
   249   -3.175431701345e-05
   250   -5.497426513836e-06
   251    3.737830658440e-06
   252   -4.538772026815e-05
   253    2.532650093756e-04
   254   -5.387890447604e-05
   255   -1.281598901667e-05
   256    3.327684090956e-06
   257    3.879171611617e-16
   258    4.057884205531e-05
   259   -2.705029096808e-05
   260   -2.956317780639e-15
   261   -1.023151787070e-04
   262    1.215257627050e-04
   263   -6.905724093693e-16
   264    4.642565983273e-07
   265   -1.387665754823e-16
   266    5.324143645184e-16
   267    2.555079133729e-07
   268    3.493105962853e-07
   269   -2.656234572806e-06
   270   -1.744072390374e-15
   271   -3.034489604308e-15
   272   -8.732203434202e-06
   273    4.761756465645e-06
   274    4.206441319635e-16
   275   -1.637618538826e-06
   276   -2.488024905463e-06
   277    5.668456714891e-16
   278   -6.268685437139e-16
   279   -2.364083376511e-06
   280   -4.886758448029e-06
   281   -3.562973440557e-06
   282    2.609996631130e-05
   283   -6.267537102239e-05
   284    6.508029682437e-05
   285    1.743224737936e-06
   286   -1.476732450138e-06
   287   -1.319152518523e-06
   288   -8.964774779448e-06
   289   -7.495737079119e-06
   290   -9.224303748682e-06
   291    5.519052401906e-05
   292   -5.483941250093e-05
   293    7.862831560954e-05
   294    4.070278550509e-06
   295    3.082205368735e-07
   296    1.140973999092e-06
   297    3.238072132293e-06
   298   -2.390564243673e-07
   299   -2.575792987128e-05
   300    7.961890602088e-06
   301    1.160441849311e-05
   302   -1.406734227540e-05
   303    7.870324775872e-06
   304    2.612214007393e-06
   305   -2.609436620312e-06
   306   -8.430741273808e-07
   307    3.124919241744e-06
   308   -3.265210789436e-06
   309   -2.770157955804e-06
   310   -6.105927504028e-07
   311   -3.562973440605e-06
   312    2.609996631179e-05
   313   -6.267537096998e-05
   314    6.508029683997e-05
   315    1.743224734892e-06
   316   -1.476732449470e-06
   317    1.319152519905e-06
   318   -8.964774766641e-06
   319   -7.495737080766e-06
   320    9.224303747620e-06
   321    5.519052405008e-05
   322   -5.483941250634e-05
   323   -7.862831559183e-05
   324    4.070278549861e-06
   325   -3.082205379423e-07
   326   -1.140973999780e-06
   327    3.238072131239e-06
   328   -2.390564239148e-07
   329   -2.575792987158e-05
   330   -7.961890589156e-06
   331   -1.160441849123e-05
   332   -1.406734226849e-05
   333    7.870324767321e-06
   334   -2.612214007617e-06
   335   -2.609436618781e-06
   336   -8.430741262470e-07
   337   -3.124919240793e-06
   338    3.265210786751e-06
   339   -2.770157955972e-06
   340   -6.105927518102e-07
Sym=X
Ene= -20.548223
Spin=Alpha
Occup=1
     1   -3.880995824269e-06
     2    5.135247164175e-05
     3   -2.292308186809e-04
     4    9.679997837587e-04
     5   -7.466541810972e-04
     6    1.660697068497e-05
     7   -2.143808051263e-05
     8   -1.086182906093e-16
     9    4.947921125497e-06
    10   -7.293194569521e-05
    11   -5.905361242326e-16
    12    1.048641228595e-03
    13   -1.492679022927e-03
    14    1.145590758283e-14
    15   -4.661307355738e-05
    16    6.147469650889e-04
    17    5.252970431241e-15
    18    3.202469662026e-05
    19    4.847906252733e-16
    20    2.227783736854e-16
    21    2.580490495670e-05
    22    2.821866867255e-05
    23   -2.269376355684e-04
    24   -1.831962858322e-15
    25   -1.006522263200e-15
    26   -2.420283996593e-04
    27   -3.168292167832e-04
    28   -2.449289428334e-04
    29   -1.988224237585e-15
    30    2.304526880639e-15
    31   -6.638174142008e-04
    32   -7.483998093248e-04
    33    1.373325884072e-16
    34    2.387996204445e-06
    35   -1.098927221251e-05
    36   -5.343909688404e-17
    37    8.888847128292e-17
    38   -1.479837738609e-05
    39    2.223656674430e-06
    40   -4.027129632778e-15
    41   -1.227004597317e-04
    42    2.248041852265e-04
    43    1.215844856774e-16
    44   -3.426260765380e-15
    45   -2.618086284645e-04
    46   -2.035896820642e-05
    47    1.027266857819e-05
    48    4.630196550674e-16
    49   -5.711109058950e-17
    50    1.233835907377e-05
    51    2.230112681433e-05
    52   -1.103557510605e-15
    53   -9.927819064883e-17
    54   -2.129545990561e-05
    55    4.124400211694e-05
    56    1.912911948499e-06
    57    1.012788186608e-06
    58   -1.102293609156e-04
    59    8.990155537084e-04
    60    7.434449725496e-04
    61   -1.602405155505e-06
    62    6.846150070670e-06
    63   -1.651032405476e-15
    64   -4.813061624292e-05
    65   -6.454143507660e-05
    66    9.160607961480e-15
    67    3.964503369764e-04
    68    2.887937602228e-04
    69   -5.664331738554e-14
    70    1.942507192630e-04
    71   -9.856916759882e-05
    72   -2.697350739551e-14
    73   -3.958679707621e-06
    74    1.183333614676e-16
    75   -6.191186157630e-16
    76   -6.660955820107e-06
    77    1.683045641244e-06
    78    1.338183634038e-05
    79   -2.200997325748e-15
    80    9.237010968597e-15
    81    8.884640296284e-06
    82    3.262168226300e-05
    83    3.746755032239e-04
    84    3.631575675503e-17
    85   -1.850889809528e-14
    86    1.785128333023e-04
    87   -2.373033432312e-04
    88   -3.134318366372e-16
    89   -1.304068862942e-06
    90    1.355223773661e-05
    91   -3.521679238646e-16
    92   -1.644416211272e-15
    93    1.268901935485e-05
    94   -1.006925300046e-06
    95    3.054948838116e-15
    96   -3.121744937382e-05
    97   -2.582076510780e-07
    98   -1.266161790215e-15
    99   -7.154088553388e-15
   100   -5.748451457504e-05
   101    7.208188226373e-06
   102   -5.623074398735e-06
   103    1.476759591891e-17
   104   -1.470548405167e-15
   105   -1.322075553860e-05
   106    3.850713364477e-06
   107   -3.885831408165e-16
   108    7.959037224523e-17
   109   -1.259931057873e-06
   110    6.386135340147e-06
   111    5.863078732379e-01
   112   -4.472388068698e-01
   113    1.877046812229e-02
   114   -4.962485927416e-03
   115    1.468128256041e-03
   116   -6.380529128210e-04
   117    1.415951763168e-03
   118    2.993306108024e-16
   119    1.169454908589e-04
   120   -2.638457152830e-04
   121   -2.742216227177e-17
   122    2.547587886238e-04
   123   -5.812132758848e-04
   124   -3.494995053830e-15
   125   -1.097101237199e-04
   126    8.744597769001e-05
   127   -1.544981213649e-15
   128   -5.249965489544e-05
   129    3.096056606015e-16
   130    1.130000317501e-16
   131   -6.272511274854e-05
   132   -8.384313258498e-05
   133   -5.366968791127e-05
   134   -5.901856246461e-17
   135   -1.520282262303e-16
   136    1.153646270783e-04
   137    1.509681915486e-04
   138   -4.881070645409e-05
   139    1.087619791609e-15
   140   -3.368934687240e-15
   141    3.595150493472e-05
   142   -4.388196071554e-05
   143   -1.454172598084e-17
   144    7.237973407383e-06
   145   -1.549953296433e-05
   146   -4.527886087953e-17
   147   -2.170404136820e-17
   148    2.686202506616e-05
   149   -6.497069444031e-06
   150    9.933555330821e-16
   151    1.290124985510e-05
   152   -1.998127897968e-05
   153    8.025814787456e-16
   154    5.041565785886e-16
   155    3.817165229480e-05
   156    1.018646088629e-05
   157    6.696783461193e-06
   158    1.517659570365e-16
   159   -3.433964212398e-17
   160    6.326936270644e-06
   161    8.629534385498e-06
   162   -2.971943076826e-16
   163    1.335049391628e-16
   164   -6.082909136289e-06
   165    1.603554169482e-05
   166    1.672081118900e-04
   167   -1.321778490189e-04
   168   -1.443054553493e-05
   169    9.178743067965e-05
   170    2.604325825544e-04
   171   -3.956070463734e-07
   172    2.055086439180e-06
   173    3.316697827893e-16
   174    1.242711622398e-05
   175    1.864881985759e-05
   176   -7.286906654710e-17
   177   -2.000097298322e-05
   178   -7.171726725246e-05
   179   -6.316422096464e-16
   180    3.825743827922e-04
   181   -2.694818738726e-04
   182   -2.639206737281e-15
   183   -1.576019842466e-06
   184   -1.313318463581e-16
   185   -1.449818584037e-16
   186   -1.971855284431e-07
   187    7.260056527232e-07
   188    1.650860076839e-06
   189    4.250088398011e-17
   190   -7.097971455962e-16
   191    6.590850651335e-06
   192   -4.174668623442e-06
   193   -1.744896427207e-06
   194    6.893923601249e-16
   195    1.536180144280e-15
   196   -7.878325402778e-05
   197   -4.658275286295e-05
   198    3.209387289980e-16
   199   -5.551413554004e-06
   200    4.062941032941e-06
   201    2.902928585907e-16
   202    2.476608962620e-16
   203    7.352588294250e-06
   204   -1.722984550774e-06
   205    3.317579503165e-16
   206    2.731265890704e-05
   207   -5.300003288822e-06
   208   -5.441039485861e-16
   209   -8.605106393804e-16
   210   -4.831442039876e-05
   211    7.442124618480e-07
   212    4.362218963254e-07
   213    2.656516014377e-17
   214    1.079841143947e-16
   215    1.904033709413e-06
   216   -1.093237060626e-06
   217   -3.996346443771e-17
   218    1.526138899563e-16
   219   -4.551573320775e-06
   220    1.646780311657e-06
   221   -8.969262430309e-06
   222    1.311474974168e-04
   223   -3.745365698349e-04
   224   -3.436837393169e-05
   225   -1.558751539742e-05
   226   -9.876188340326e-06
   227    2.651935270124e-16
   228    4.398774250108e-06
   229    5.133420777296e-05
   230   -2.825878399296e-16
   231    9.553635444694e-05
   232   -1.756590921768e-05
   233    5.471796443316e-16
   234   -8.312972884484e-06
   235   -7.017674585447e-17
   236   -8.285869953702e-17
   237   -5.178255194935e-06
   238   -4.696304188958e-07
   239    3.221951024487e-05
   240   -8.225993554485e-17
   241    2.643400304759e-16
   242   -1.776425329605e-05
   243   -3.862817867557e-05
   244    2.071185642142e-16
   245   -8.391994424790e-06
   246   -8.456155692187e-06
   247   -2.387771708706e-16
   248   -1.149556323020e-16
   249    4.462542097428e-06
   250    2.607555268855e-06
   251   -6.742756371764e-06
   252    1.025754256375e-04
   253    3.363338581623e-04
   254   -1.477175529018e-05
   255    3.554711237997e-06
   256    1.555443128295e-05
   257   -2.517270640286e-15
   258    7.750084403493e-07
   259   -2.852878559225e-05
   260    8.391717615258e-15
   261    3.466457663933e-05
   262    2.251857758427e-05
   263    2.638529865312e-15
   264    1.786419861674e-06
   265    8.966251381293e-17
   266    1.629864502876e-16
   267    1.168731627194e-06
   268    7.466135868552e-06
   269    7.821303330204e-06
   270    1.752139426284e-15
   271    5.103374989515e-15
   272    2.842639228855e-05
   273   -5.391907854918e-05
   274   -1.070306702865e-15
   275    4.320117267264e-06
   276    4.317669313438e-06
   277   -8.216290527376e-16
   278    7.019291094887e-16
   279    1.051756639071e-05
   280    2.063588382478e-06
   281    6.744981450886e-07
   282    6.444505370218e-06
   283   -6.274287664640e-04
   284   -2.118694042382e-05
   285    3.236707712911e-06
   286   -5.703081391165e-06
   287   -5.261192551079e-06
   288   -1.597524748434e-05
   289    2.660510681638e-05
   290    3.231297245796e-05
   291   -1.403717625129e-04
   292    1.848488737418e-04
   293    5.165955783354e-05
   294   -6.741482329767e-06
   295   -1.046999104951e-07
   296    6.152820604012e-07
   297    1.445958267994e-06
   298   -1.444757235546e-06
   299    2.672181399864e-05
   300    2.636097710102e-05
   301   -1.832297444776e-05
   302   -7.685974481320e-06
   303    1.585417177058e-05
   304   -4.459218974954e-06
   305   -3.531900140521e-06
   306    3.380463849133e-07
   307    5.636635297696e-06
   308   -8.940577630795e-07
   309   -7.291308873066e-07
   310   -2.263919790482e-06
   311    6.744981427405e-07
   312    6.444505387139e-06
   313   -6.274287665704e-04
   314   -2.118694045678e-05
   315    3.236707712656e-06
   316   -5.703081390996e-06
   317    5.261192548672e-06
   318   -1.597524748558e-05
   319    2.660510681366e-05
   320   -3.231297244564e-05
   321   -1.403717625314e-04
   322    1.848488737660e-04
   323   -5.165955786842e-05
   324   -6.741482328557e-06
   325    1.046999116355e-07
   326   -6.152820617776e-07
   327    1.445958268111e-06
   328   -1.444757234778e-06
   329    2.672181400303e-05
   330   -2.636097710511e-05
   331    1.832297444937e-05
   332   -7.685974481811e-06
   333    1.585417177147e-05
   334    4.459218976875e-06
   335   -3.531900140368e-06
   336    3.380463830114e-07
   337   -5.636635298737e-06
   338    8.940577630121e-07
   339   -7.291308881708e-07
   340   -2.263919789848e-06
Sym=X
Ene= -11.387904
Spin=Alpha
Occup=1
     1    6.266733949372e-01
     2   -4.072925701495e-01
     3    1.779040861325e-02
     4   -1.861710732002e-03
     5    3.352694980584e-05
     6    5.718341675928e-04
     7    8.883908332567e-04
     8    8.545228890300e-16
     9   -2.627073275469e-04
    10   -8.220379403456e-04
    11   -2.270972835103e-15
    12    1.118679167589e-03
    13   -1.813194198901e-03
    14    5.000331525657e-15
    15   -7.331088886344e-04
    16   -2.583980522055e-04
    17    3.389491912172e-15
    18    4.766816992170e-05
    19   -2.855553470684e-16
    20   -6.587718279140e-16
    21   -8.581547330240e-05
    22   -1.636263328088e-05
    23   -1.053679471127e-03
    24    1.588466296974e-15
    25    2.004001179140e-15
    26   -9.432280367611e-05
    27   -8.134562636278e-04
    28    5.110306152195e-04
    29    1.069217100857e-15
    30    3.964253847707e-15
    31   -2.734768400758e-04
    32    4.266273557703e-04
    33   -2.684216109334e-16
    34   -2.969809614846e-05
    35    7.262469862069e-05
    36    2.132389562845e-16
    37    1.704468914939e-16
    38   -3.527080700465e-04
    39    8.950881842874e-05
    40   -4.544001419170e-16
    41   -1.209693241827e-04
    42    2.134496316955e-04
    43   -9.850931766679e-16