 
Create Ar   file=QZ4P-Ar
XC
  HartreeFock
End
  HartreeFock

 *******************************************************************************
 *                                                                             *
 *  -------------------------------------                                      *
 *   Amsterdam Density Functional  (ADF)         2018                          *
 *  -------------------------------------                                      *
 *                                               r70630 2018-11-24             *
 *                                                                             *
 *                                                                             *
 *                              =================                              *
 *                              |               |                              *
 *                              |     A D F     |                              *
 *                              |               |                              *
 *                              =================                              *
 *                                                                             *
 *                                                                             *
 *   Online information and documentation:  https://www.scm.com/support/       *
 *   E-mail:  support@scm.com   info@scm.com                                   *
 *                                                                             *
 *   Scientific publications using ADF results must be properly referenced     *
 *   See the User Manuals (or the web site) for recommended citations          *
 *   The terms and conditions of the End User License Agreement apply to       *
 *   the use of ADF, https://www.scm.com/license-terms/                        *
 *                                                                             *
 **********************  x86_64_linux_intel / intelmpi  ************************
 
 Licensed to: Mr. Vladimir Konjkov / Florida Institute of Technology / Melbourne / Florida / USA
 SCM User ID: u21173
  
 ADF 2018  RunTime: Mar23-2019 13:46:09  Nodes: 1  Procs: 1

 Temporary files are created in /tmp/kid_0.1435068343

 Argon (QZ, all electron, 11S 7P 3D 2F)



 ===========================
 A T T A C H E D   F I L E S
 ===========================
  
 CREATE - Data File:    QZ4P-Ar
                        Argon (QZ, all electron, 11S 7P 3D 2F)



 ===============================
 M O D E L   P A R A M E T E R S
 ===============================
  
 DENSITY FUNCTIONAL POTENTIAL (scf)
    Hybrid:                            HARTREEFOCK                             == Not Default ==

 SPIN  (restricted / unrestr.)
    Molecule:                          Restricted                               

 OTHER ASPECTS
    Relativistic Corrections:          ---                                      

    Nuclear Charge Density Model:      Point Charge Nuclei                      
    Core Treatment:                    Frozen Orbital(s)                        

    Hyperfine or Zeeman Interaction:   ---                                      



 =====================================
 S Y M M E T R Y ,   E L E C T R O N S
 =====================================
  
 Symmetry: ATOM

 Irreducible Representations, including subspecies
 -------------------------------------------------
 S
 P:x  P:y  P:z
 D:z2  D:x2-y2  D:xy  D:xz  D:yz
 F:z3  F:z  F:xyz  F:z2x  F:z2y  F:x  F:y


 Configuration of Valence Electrons
 ==================================

          Occupation Numbers
          -------------------------------------------------
 S        3*2
 P        2*6
 D        0
 F        0
          -------------------------------------------------

 Total:   18

 Net Charge: 0 (Nuclei minus Electrons)

 Preset values for MO occupations will be applied through SCF cycle no. 1000000
 Thereafter, the program will assign electrons to MOs that are spatially
 similar to the occupied MOs in a "reference" cycle ("KeepOrbitals").
 The reference cycle is always the PREVIOUS cycle: it will evolve with
 the SCF procedure.



 ================================
 (Slater-type)  F U N C T I O N S  ***  (Basis and Fit)  ***
 ================================
  

 Atom Type    1  (Ar)
 ==============

 Valence Basis Sets:  23
 -----------------------
   1 S   72.700000
   1 S   22.050000
   1 S   16.350000
   2 S   15.500000
   2 S    7.400000
   2 S    5.500000
   3 S    5.250000
   3 S    3.650000
   3 S    2.400000
   3 S    1.700000
   3 S    0.850000
   2 P   13.150000
   2 P    7.650000
   2 P    5.150000
   3 P    3.450000
   3 P    2.600000
   3 P    1.800000
   3 P    1.170000
   3 D    4.000000
   3 D    2.000000
   3 D    1.000000
   4 F    3.000000
   4 F    1.500000

 Charge Fitting Sets (for the computation of the Coulomb Potential):  52
 -----------------------------------------------------------------------
   1 S  145.400000
   1 S  107.900000
   1 S   80.080000
   1 S   59.430000
   1 S   44.100000
   1 S   27.950000
   2 S   32.740000
   2 S   23.010000
   3 S   23.690000
   3 S   17.590000
   3 S   13.060000
   4 S   12.800000
   4 S    9.840000
   4 S    7.570000
   4 S    5.820000
   5 S    5.570000
   5 S    4.390000
   5 S    3.470000
   5 S    2.730000
   5 S    2.160000
   5 S    1.700000
   2 P   29.700000
   2 P   18.840000
   3 P   17.620000
   3 P   12.000000
   4 P   10.830000
   4 P    7.720000
   5 P    6.870000
   5 P    5.060000
   5 P    3.730000
   5 P    2.740000
   5 P    2.020000
   3 D   24.550000
   3 D   16.020000
   4 D   13.890000
   4 D    9.540000
   5 D    8.190000
   5 D    5.830000
   5 D    4.150000
   5 D    2.950000
   5 D    2.100000
   4 F   25.050000
   4 F   15.290000
   4 F    9.330000
   5 F    7.160000
   5 F    4.580000
   6 F    3.540000
   6 F    2.350000
   5 G   10.650000
   5 G    6.300000
   5 G    3.720000
   6 G    2.670000


 BAS: List of all Elementary Cartesian Basis Functions
 =====================================================

 The numbering in the list below (to the right of the function characteristics) is referred
 to in print-outs of MO eigenvectors and Mulliken populations in the BAS representation
 (as contrasted to the SFO representation).

 Notes:
 1. The functions are characterized by a polynomial prefactor (powers of x,y,z and r) and
    an exponential decay factor alpha.
 2. Since the basis sets are specific for an atom TYPE, the individual functions occur on
    all atoms of that type.
 3. The word 'Core' in the left margin signals that it is a Core Function (CF) : not a
    degree of freedom in the valence set, but only used to ensure orthogonalization of
    the other valence basis functions on the frozen Core Orbitals.


 (power of) X  Y  Z  R     Alpha  on Atom
            ==========     =====     ==========

 Ar                                   1
                                  ---------------------------------------------------------------------------
            0  0  0  0    72.700      1
            0  0  0  0    22.050      2
            0  0  0  0    16.350      3
            0  0  0  1    15.500      4
            0  0  0  1     7.400      5
            0  0  0  1     5.500      6
            0  0  0  2     5.250      7
            0  0  0  2     3.650      8
            0  0  0  2     2.400      9
            0  0  0  2     1.700     10
            0  0  0  2     0.850     11
            1  0  0  0    13.150     12
            0  1  0  0    13.150     13
            0  0  1  0    13.150     14
            1  0  0  0     7.650     15
            0  1  0  0     7.650     16
            0  0  1  0     7.650     17
            1  0  0  0     5.150     18
            0  1  0  0     5.150     19
            0  0  1  0     5.150     20
            1  0  0  1     3.450     21
            0  1  0  1     3.450     22
            0  0  1  1     3.450     23
            1  0  0  1     2.600     24
            0  1  0  1     2.600     25
            0  0  1  1     2.600     26
            1  0  0  1     1.800     27
            0  1  0  1     1.800     28
            0  0  1  1     1.800     29
            1  0  0  1     1.170     30
            0  1  0  1     1.170     31
            0  0  1  1     1.170     32
            2  0  0  0     4.000     33
            1  1  0  0     4.000     34
            1  0  1  0     4.000     35
            0  2  0  0     4.000     36
            0  1  1  0     4.000     37
            0  0  2  0     4.000     38
            2  0  0  0     2.000     39
            1  1  0  0     2.000     40
            1  0  1  0     2.000     41
            0  2  0  0     2.000     42
            0  1  1  0     2.000     43
            0  0  2  0     2.000     44
            2  0  0  0     1.000     45
            1  1  0  0     1.000     46
            1  0  1  0     1.000     47
            0  2  0  0     1.000     48
            0  1  1  0     1.000     49
            0  0  2  0     1.000     50
            3  0  0  0     3.000     51
            2  1  0  0     3.000     52
            2  0  1  0     3.000     53
            1  2  0  0     3.000     54
            1  1  1  0     3.000     55
            1  0  2  0     3.000     56
            0  3  0  0     3.000     57
            0  2  1  0     3.000     58
            0  1  2  0     3.000     59
            0  0  3  0     3.000     60
            3  0  0  0     1.500     61
            2  1  0  0     1.500     62
            2  0  1  0     1.500     63
            1  2  0  0     1.500     64
            1  1  1  0     1.500     65
            1  0  2  0     1.500     66
            0  3  0  0     1.500     67
            0  2  1  0     1.500     68
            0  1  2  0     1.500     69
            0  0  3  0     1.500     70

 Total number of charge fitting functions (nprimf)       238
 Total number of Cartesian basis functions (naos)         70
 Total number of Cartesian core functions  (ncos)          0



 BAS: List of all Elementary Cartesian Basis Functions
 =====================================================

 The numbering in the list below (to the right of the function characteristics) is referred
 to in print-outs of MO eigenvectors and Mulliken populations in the BAS representation
 (as contrasted to the SFO representation).

 Notes:
 1. The functions are characterized by a polynomial prefactor (powers of x,y,z and r) and
    an exponential decay factor alpha.
 2. Since the basis sets are specific for an atom TYPE, the individual functions occur on
    all atoms of that type.
 3. The word 'Core' in the left margin signals that it is a Core Function (CF) : not a
    degree of freedom in the valence set, but only used to ensure orthogonalization of
    the other valence basis functions on the frozen Core Orbitals.


 (power of) X  Y  Z  R     Alpha  on Atom
            ==========     =====     ==========

 Ar                                   1
                                  ---------------------------------------------------------------------------
            0  0  0  0    72.700      1
            0  0  0  0    22.050      2
            0  0  0  0    16.350      3
            0  0  0  1    15.500      4
            0  0  0  1     7.400      5
            0  0  0  1     5.500      6
            0  0  0  2     5.250      7
            0  0  0  2     3.650      8
            0  0  0  2     2.400      9
            0  0  0  2     1.700     10
            0  0  0  2     0.850     11
            1  0  0  0    13.150     12
            0  1  0  0    13.150     13
            0  0  1  0    13.150     14
            1  0  0  0     7.650     15
            0  1  0  0     7.650     16
            0  0  1  0     7.650     17
            1  0  0  0     5.150     18
            0  1  0  0     5.150     19
            0  0  1  0     5.150     20
            1  0  0  1     3.450     21
            0  1  0  1     3.450     22
            0  0  1  1     3.450     23
            1  0  0  1     2.600     24
            0  1  0  1     2.600     25
            0  0  1  1     2.600     26
            1  0  0  1     1.800     27
            0  1  0  1     1.800     28
            0  0  1  1     1.800     29
            1  0  0  1     1.170     30
            0  1  0  1     1.170     31
            0  0  1  1     1.170     32
            2  0  0  0     4.000     33
            1  1  0  0     4.000     34
            1  0  1  0     4.000     35
            0  2  0  0     4.000     36
            0  1  1  0     4.000     37
            0  0  2  0     4.000     38
            2  0  0  0     2.000     39
            1  1  0  0     2.000     40
            1  0  1  0     2.000     41
            0  2  0  0     2.000     42
            0  1  1  0     2.000     43
            0  0  2  0     2.000     44
            2  0  0  0     1.000     45
            1  1  0  0     1.000     46
            1  0  1  0     1.000     47
            0  2  0  0     1.000     48
            0  1  1  0     1.000     49
            0  0  2  0     1.000     50
            3  0  0  0     3.000     51
            2  1  0  0     3.000     52
            2  0  1  0     3.000     53
            1  2  0  0     3.000     54
            1  1  1  0     3.000     55
            1  0  2  0     3.000     56
            0  3  0  0     3.000     57
            0  2  1  0     3.000     58
            0  1  2  0     3.000     59
            0  0  3  0     3.000     60
            3  0  0  0     1.500     61
            2  1  0  0     1.500     62
            2  0  1  0     1.500     63
            1  2  0  0     1.500     64
            1  1  1  0     1.500     65
            1  0  2  0     1.500     66
            0  3  0  0     1.500     67
            0  2  1  0     1.500     68
            0  1  2  0     1.500     69
            0  0  3  0     1.500     70
1
 ***************************************************************************************************



                                              ***********************
                                              *  T E C H N I C A L  *
                                              ***********************
  



 =============================================================
 P A R A L L E L I Z A T I O N  and  V E C T O R I Z A T I O N
 =============================================================
  
 Nr of parallel processes:                                1
 Maximum vector length in NumInt loops:                 128

 IO buffersize (Mb):                                     64.000000



 =====================
 S C F   U P D A T E S
 =====================
  
 Max. nr. of cycles:                               300
 Convergence criterion:                              0.0000000100
   secondary criterion:                              0.0000000100

 Mix parameter (when DIIS does not apply):           0.2000000000
 Special mix parameter for the first cycle:          1.0000000000
 Mixed ADIIS+DIIS will be used
    Max number of expansion vectors:                10
    Pure ADIIS when Max([F,P]) is above              0.1000000000
    Pure DIIS when Max([F,P]) is below               0.0010000000
 Automatic ElectronSmearing (in case of problematic SCF convergence) disabled



 =================
 P R E C I S I O N  ***  (General: NumInt, NeglectFunctionTails, ...)  ***
 =================
  

 NumInt:           Target precision:                12.0000000000
 -------           Initial precision:               10.0000000000
                   Min. precision (optimization):   10.0000000000

 Neglect Functions:          Basis functions:        0.1000000000E-13
 ------------------          Fit functions:          0.1000000000E-13



 ===========================
 L I N E A R   S C A L I N G
 ===========================
  

 Cut-off radii density fit:                        0.1000000000E-97
 Overlap cut-off criterion AO matrix elements:     0.1000000000E-97
 Cut-offs for Coulomb potential and fitted density:0.1000000000E-97
 Cut-off criterion for Coulomb multipole terms:    0.1000000000E-97
 Progressive Convergence parameter:                 0.000000000    
1
 ***************************************************************************************************



                                            ***************************
                                            *  C O M P U T A T I O N  *
                                            ***************************
  

 Number of elements of the density matrix on this node (used, total):      2485      2485



 ===========================================
 Numerical Integration : Fuzzy Cells (Becke)
 ===========================================
  
 Becke grid quality: VERYGOOD       
  
 Lebedev angular grid order:             min:  13 max:  41
 Nr. of radial points:                   min: 128 max: 128

 Total nr. of points:        128
 Nr. of blocks:                1
 Block length:               128
 Nr. of dummy points:          0


 Test of Precision of the Numerical Integration Grid
 ===================================================

 Integral of the Total Core Density:                   0.00000000000000



 ========================
 Density Fitting (zlmFit)
 ========================
  
 ZlmFit Fit Quality: VERYGOOD       
  
 Max L-expansion:                        min:   0 max:   0
 Nr. of radial interpolation points:     min: 290 max: 290



 ======================
 RI Hartree-Fock Scheme
 ======================
  
 Fit Set Quality     : NORMAL
 Integration Quality : NORMAL
 Threshold Quality   : NORMAL
 Response Quality    : DEFAULT
 Is Range Separated  :  F
 
 RIHartreeFock Dependency: number of modified vectors:           4



 =====
 S C F  ***  ScaSCF  ***
 =====
  

 CYCLE    1
 SCF Error: norm([F,P])=      0.000000000000, max([F,P])=      0.000000000000
 orbitals (Q,E):
 ---------------
 S :1...11           ( 2.00  -162.0000)  ( 2.00   -40.4998)  ( 2.00   -17.9994)  ( 0.00   -10.1248)
                     ( 0.00    -6.4783)  ( 0.00    -4.4699)  ( 0.00    -2.9539)  ( 0.00     2.7346)
                     ( 0.00    62.1112)  ( 0.00   428.7714)  ( 0.00  4205.1060)
 P :1...7            ( 6.00   -40.4918)  ( 6.00   -17.9949)  ( 0.00   -10.0803)  ( 0.00    -6.3535)
                     ( 0.00    -4.2526)  ( 0.00    -3.0181)  ( 0.00    50.8973)
 D :1...3            ( 0.00   -16.5022)  ( 0.00    -8.3224)  ( 0.00    -4.2024)
 F :1...2            ( 0.00    -9.1623)  ( 0.00    -4.8664)

 CYCLE    2
  SDIIS (wt  0.000):  1.0000  0.0000
 A-DIIS (wt  1.000):  0.0000  1.0000
  DIIS coefficients:  0.0000  1.0000
 SCF Error: norm([F,P])=     45.923316246470, max([F,P])=     11.205655726179
 orbitals (Q,E):
 ---------------
 S :1...4            ( 2.00  -103.5424)  ( 2.00    -5.0478)  ( 2.00     0.0585)  ( 0.00     0.3350)
 P :1...3            ( 6.00    -1.9001)  ( 6.00     0.1871)  ( 0.00     0.7425)
 D :1...1            ( 0.00     0.3756)
 F :1...1            ( 0.00     0.9606)

 CYCLE    3
  SDIIS (wt  0.000):  0.1405  0.8595
 A-DIIS (wt  1.000):  0.0830  0.9170
  DIIS coefficients:  0.0830  0.9170
 SCF Error: norm([F,P])=     17.693663339293, max([F,P])=      5.971154457678
 orbitals (Q,E):
 ---------------
 S :1...4            ( 2.00  -126.2061)  ( 2.00   -17.0721)  ( 2.00    -3.2056)  ( 0.00    -0.7766)
 P :1...3            ( 6.00   -14.5015)  ( 6.00    -2.5822)  ( 0.00    -0.5773)
 D :1...1            ( 0.00    -1.5587)
 F :1...1            ( 0.00     0.0586)

 CYCLE    4
  SDIIS (wt  0.000): -0.0738  0.1619  0.9119
 A-DIIS (wt  1.000):  0.0000  0.0000  1.0000
  DIIS coefficients:  0.0000  0.0000  1.0000
 SCF Error: norm([F,P])=      7.014167767832, max([F,P])=      2.324034052296
 orbitals (Q,E):
 ---------------
 S :1...4            ( 2.00  -115.1120)  ( 2.00   -10.1166)  ( 2.00    -0.5778)  ( 0.00     0.0977)
 P :1...3            ( 6.00    -7.2683)  ( 6.00    -0.0129)  ( 0.00     0.2998)
 D :1...1            ( 0.00     0.3657)
 F :1...1            ( 0.00     0.9437)

 CYCLE    5
  SDIIS (wt  0.000): -0.0117 -0.0579  0.2579  0.8116
 A-DIIS (wt  1.000):  0.0000  0.0000  0.0000  1.0000
  DIIS coefficients:  0.0000  0.0000  0.0000  1.0000
 SCF Error: norm([F,P])=      2.781231698256, max([F,P])=      1.275226346642
 orbitals (Q,E):
 ---------------
 S :1...4            ( 2.00  -120.3307)  ( 2.00   -13.5125)  ( 2.00    -1.7755)  ( 0.00     0.0117)
 P :1...3            ( 6.00   -10.7974)  ( 6.00    -0.9952)  ( 0.00     0.1428)
 D :1...1            ( 0.00     0.1204)
 F :1...1            ( 0.00     0.7400)

 CYCLE    6
  SDIIS (wt  0.000):  0.0030 -0.0043 -0.1091  0.1802  0.9302
 A-DIIS (wt  1.000):  0.0000  0.0000  0.0000  0.0000  1.0000
  DIIS coefficients:  0.0000  0.0000  0.0000  0.0000  1.0000
 SCF Error: norm([F,P])=      1.161948006741, max([F,P])=      0.439431214988
 orbitals (Q,E):
 ---------------
 S :1...4            ( 2.00  -117.9975)  ( 2.00   -11.9233)  ( 2.00    -1.1510)  ( 0.00     0.0847)
 P :1...3            ( 6.00    -9.1556)  ( 6.00    -0.4820)  ( 0.00     0.2476)
 D :1...1            ( 0.00     0.3211)
 F :1...1            ( 0.00     0.8889)

 CYCLE    7
  SDIIS (wt  0.000):  0.0002 -0.0013  0.0014 -0.0474  0.1684  0.8788
 A-DIIS (wt  1.000):  0.0000  0.0000  0.0000  0.0000  0.0000  1.0000
  DIIS coefficients:  0.0000  0.0000  0.0000  0.0000  0.0000  1.0000
 SCF Error: norm([F,P])=      0.389545962864, max([F,P])=      0.163242400908
 orbitals (Q,E):
 ---------------
 S :1...4            ( 2.00  -118.8147)  ( 2.00   -12.4523)  ( 2.00    -1.3224)  ( 0.00     0.0774)
 P :1...3            ( 6.00    -9.7065)  ( 6.00    -0.6288)  ( 0.00     0.2334)
 D :1...1            ( 0.00     0.2949)
 F :1...1            ( 0.00     0.8643)

 CYCLE    8
  SDIIS (wt  0.510): -0.0001  0.0002  0.0017 -0.0119 -0.0296  0.2667  0.7730
 A-DIIS (wt  0.490):  0.0000  0.0000  0.0000  0.0000  0.0000  0.0000  1.0000
  DIIS coefficients: -0.0000  0.0001  0.0009 -0.0061 -0.0151  0.1361  0.8841
 SCF Error: norm([F,P])=      0.128775029580, max([F,P])=      0.049464290988
 orbitals (Q,E):
 ---------------
 S :1...4            ( 2.00  -118.5806)  ( 2.00   -12.3040)  ( 2.00    -1.2719)  ( 0.00     0.0807)
 P :1...3            ( 6.00    -9.5522)  ( 6.00    -0.5863)  ( 0.00     0.2386)
 D :1...1            ( 0.00     0.3051)
 F :1...1            ( 0.00     0.8737)

 CYCLE    9
  SDIIS (wt  0.931):  0.0000  0.0000  0.0002  0.0004 -0.0048 -0.0461  0.0493  1.0010
 A-DIIS (wt  0.069):  0.0000  0.0000  0.0000  0.0000  0.0000  0.0000  0.0000  1.0000
  DIIS coefficients:  0.0000  0.0000  0.0002  0.0004 -0.0045 -0.0430  0.0459  1.0009
 SCF Error: norm([F,P])=      0.019231440611, max([F,P])=      0.007802738858
 orbitals (Q,E):
 ---------------
 S :1...4            ( 2.00  -118.6113)  ( 2.00   -12.3228)  ( 2.00    -1.2776)  ( 0.00     0.0805)
 P :1...3            ( 6.00    -9.5719)  ( 6.00    -0.5912)  ( 0.00     0.2380)
 D :1...1            ( 0.00     0.3042)
 F :1...1            ( 0.00     0.8729)

 CYCLE   10
  SDIIS (wt  1.000): -0.0000 -0.0000 -0.0000  0.0001  0.0000  0.0015 -0.0099 -0.0786  1.0869
  DIIS coefficients: -0.0000 -0.0000 -0.0000  0.0001  0.0000  0.0015 -0.0099 -0.0786  1.0869
 SCF Error: norm([F,P])=      0.000478279190, max([F,P])=      0.000173330125
 orbitals (Q,E):
 ---------------
 S :1...4            ( 2.00  -118.6105)  ( 2.00   -12.3223)  ( 2.00    -1.2774)  ( 0.00     0.0805)
 P :1...3            ( 6.00    -9.5714)  ( 6.00    -0.5910)  ( 0.00     0.2380)
 D :1...1            ( 0.00     0.3043)
 F :1...1            ( 0.00     0.8730)

 CYCLE   11
  SDIIS (wt  1.000):  0.0000 -0.0000 -0.0000  0.0000  0.0000 -0.0004  0.0012  0.0116 -0.1462  1.1338
  DIIS coefficients:  0.0000 -0.0000 -0.0000  0.0000  0.0000 -0.0004  0.0012  0.0116 -0.1462  1.1338
 SCF Error: norm([F,P])=      0.000010404800, max([F,P])=      0.000003657203
 orbitals (Q,E):
 ---------------
 S :1...4            ( 2.00  -118.6105)  ( 2.00   -12.3223)  ( 2.00    -1.2774)  ( 0.00     0.0805)
 P :1...3            ( 6.00    -9.5714)  ( 6.00    -0.5910)  ( 0.00     0.2380)
 D :1...1            ( 0.00     0.3043)
 F :1...1            ( 0.00     0.8730)

 CYCLE   12
  SDIIS (wt  1.000):  0.0000  0.0000 -0.0000 -0.0000  0.0000 -0.0001 -0.0006  0.0073 -0.1273  1.1206
  DIIS coefficients:  0.0000  0.0000 -0.0000 -0.0000  0.0000 -0.0001 -0.0006  0.0073 -0.1273  1.1206
 SCF Error: norm([F,P])=      0.000000833851, max([F,P])=      0.000000339246
 orbitals (Q,E):
 ---------------
 S :1...4            ( 2.00  -118.6105)  ( 2.00   -12.3223)  ( 2.00    -1.2774)  ( 0.00     0.0805)
 P :1...3            ( 6.00    -9.5714)  ( 6.00    -0.5910)  ( 0.00     0.2380)
 D :1...1            ( 0.00     0.3043)
 F :1...1            ( 0.00     0.8730)

 CYCLE   13
  SDIIS (wt  1.000): -0.0000 -0.0000 -0.0000  0.0001  0.0029 -0.0397  1.0367
  DIIS coefficients: -0.0000 -0.0000 -0.0000  0.0001  0.0029 -0.0397  1.0367
 SCF Error: norm([F,P])=      0.000000035186, max([F,P])=      0.000000010206
 orbitals (Q,E):
 ---------------
 S :1...4            ( 2.00  -118.6105)  ( 2.00   -12.3223)  ( 2.00    -1.2774)  ( 0.00     0.0805)
 P :1...3            ( 6.00    -9.5714)  ( 6.00    -0.5910)  ( 0.00     0.2380)
 D :1...1            ( 0.00     0.3043)
 F :1...1            ( 0.00     0.8730)

 CYCLE   14
  SDIIS (wt  1.000): -0.0000 -0.0000  0.0001 -0.0033 -0.0605  1.0637
  DIIS coefficients: -0.0000 -0.0000  0.0001 -0.0033 -0.0605  1.0637
 SCF Error: norm([F,P])=      0.000000005773, max([F,P])=      0.000000002436
 orbitals (Q,E):
 ---------------
 S :1...4            ( 2.00  -118.6105)  ( 2.00   -12.3223)  ( 2.00    -1.2774)  ( 0.00     0.0805)
 P :1...3            ( 6.00    -9.5714)  ( 6.00    -0.5910)  ( 0.00     0.2380)
 D :1...1            ( 0.00     0.3043)
 F :1...1            ( 0.00     0.8730)

 SCF CONVERGED

 CYCLE   15
1
 ***************************************************************************************************



                                                *******************
                                                *  R E S U L T S  *
                                                *******************
  
  
 Hartree-Fock exchange energy:   -30.1851427050061     
 *** Setting up for NEW gradients in Focky
 *** Using FIT density in Focky

 Orbital Energies, per Irrep and Spin:
 ======================================
                        Occup              E (au)              E (eV)       Diff (eV) with prev. cycle
                        -----      --------------------        ------       --------------------------
 S
               1        2.000     -0.11861053027740E+03     -3227.557              -4.20E-09
               2        2.000     -0.12322311058924E+02      -335.307              -3.22E-09
               3        2.000     -0.12774252389497E+01       -34.761              -1.40E-09
               4        0.000      0.80517203340975E-01         2.191
               5        0.000      0.55488538581787E+00        15.099
               6        0.000      0.22700605318330E+01        61.771
               7        0.000      0.75357549964918E+01       205.058
               8        0.000      0.25331943776975E+02       689.317
               9        0.000      0.98288470238759E+02      2674.565
              10        0.000      0.47912459046095E+03     13037.643
              11        0.000      0.42670850088651E+04    116113.291
 P
               1        6.000     -0.95713890270620E+01      -260.451              -3.14E-09
               2        6.000     -0.59100205305717E+00       -16.082              -1.02E-09
               3        0.000      0.23803305270263E+00         6.477
               4        0.000      0.11341909504848E+01        30.863
               5        0.000      0.39698932113503E+01       108.026
               6        0.000      0.15900427630750E+02       432.673
               7        0.000      0.89604306517146E+02      2438.257
 D
               1        0.000      0.30426008906355E+00         8.279
               2        0.000      0.88958085670012E+00        24.207
               3        0.000      0.35919133637840E+01        97.741
 F
               1        0.000      0.87295448158474E+00        23.754
               2        0.000      0.34956589939415E+01        95.122
  
 HOMO :        2 P                -0.59100205305717E+00
 LUMO :        4 S                 0.80517203340975E-01
  


 Orbital Energies, all Irreps
 ========================================

 Irrep        no.  (spin)   Occup              E (au)                E (eV)
 ---------------------------------------------------------------------------
 S             1             2.00       -0.11861053027740E+03     -3227.5567
 S             2             2.00       -0.12322311058924E+02      -335.3071
 P             1             6.00       -0.95713890270620E+01      -260.4507
 S             3             2.00       -0.12774252389497E+01       -34.7605
 P             2             6.00       -0.59100205305717E+00       -16.0820
 S             4             0.00        0.80517203340975E-01         2.1910
 P             3             0.00        0.23803305270263E+00         6.4772
 D             1             0.00        0.30426008906355E+00         8.2793
 S             5             0.00        0.55488538581787E+00        15.0992
 F             1             0.00        0.87295448158474E+00        23.7543
 D             2             0.00        0.88958085670012E+00        24.2067
 P             4             0.00        0.11341909504848E+01        30.8629
 S             6             0.00        0.22700605318330E+01        61.7715
 F             2             0.00        0.34956589939415E+01        95.1217
 D             3             0.00        0.35919133637840E+01        97.7409
 P             5             0.00        0.39698932113503E+01       108.0263
 S             7             0.00        0.75357549964918E+01       205.0583
 P             6             0.00        0.15900427630750E+02       432.6727
 S             8             0.00        0.25331943776975E+02       689.3173
 P             7             0.00        0.89604306517146E+02      2438.2572
 S             9             0.00        0.98288470238759E+02      2674.5654
 S            10             0.00        0.47912459046095E+03     13037.6435
 S            11             0.00        0.42670850088651E+04    116113.2910


 All Electron Calculation, thus no Orbital Energies of the Core Orbitals are calculated



 =======================================
 M U L L I K E N   P O P U L A T I O N S
 =======================================
  
 The survey below gives for each atom:
 a) the total charge (Z minus electrons)
 b) the net spin polarization (nr of electrons spin-A minus spin-B)
 c) for each spin the atomic electron valence density (integrated) per L-value.

 Atom              Charge    Spin density          S         P         D         F
 ----              ------    ------------       ------    ------    ------    ------
 1 Ar              0.0000                       6.0000   12.0000    0.0000    0.0000

 Populations of individual BAS functions
 ----------------------------------------
 1 Ar           0.0004  0.3176  1.7128 -0.1197  0.7902  1.5595 -0.3852  0.7039  1.1895  0.2284
                0.0026  0.1196  0.1196  0.1196  1.0324  1.0324  1.0324  0.8478  0.8478  0.8478
                0.3559  0.3559  0.3559  0.5576  0.5576  0.5576  0.9333  0.9333  0.9333  0.1533
                0.1533  0.1533  0.0000  0.0000  0.0000  0.0000  0.0000  0.0000  0.0000  0.0000
                0.0000  0.0000  0.0000  0.0000  0.0000  0.0000  0.0000  0.0000  0.0000  0.0000
                0.0000  0.0000  0.0000  0.0000  0.0000  0.0000  0.0000  0.0000  0.0000  0.0000
                0.0000  0.0000  0.0000  0.0000  0.0000  0.0000  0.0000  0.0000  0.0000  0.0000

 Gross Charges per Atom (Z minus electrons)
 ==========================================
             0.0000
 Net Total:  0.00000000



 =======================================================================
 Electrostatic potential at the Nuclei due to electrons and other nuclei
 =======================================================================
  
         Atom                  Potential
         ----                  ---------
     1)   Ar                 69.72478608
 
 
 ========================
 No memory problems found
 ========================
 
 Maximum number of active allocate calls:         454
 
 *******************************************************************************

                             A D F   E X I T
 NORMAL TERMINATION



 =================
 Timing Statistics
 =================
  
 Total Used :                     CPU=        2.19      System=        0.07     Elapsed=        2.70

 Calls  Section                     ( Mean, Percentage )
 ---------------------------------------------------------------------------------------------------
     3  ><      ................      0.00    0.17             0.00    0.01             0.00    0.14
     1  INIT    ................      0.06    2.59             0.00    1.97             0.49   18.32
     1  GEOMET  ................      0.03    1.17             0.02   30.10             0.05    1.68
     1  INPUTA  ................      0.01    0.24             0.00    0.00             0.01    0.20
     1  MAINSY  ................      0.01    0.61             0.00    0.00             0.01    0.49
     1  SYMFIT  ................      0.00    0.06             0.00    0.00             0.00    0.05
     1  CORORT  ................      0.00    0.05             0.00    0.00             0.00    0.04
     1  SYMORB  ................      0.00    0.05             0.00    0.10             0.00    0.04
     1  FITINT  ................      0.04    1.77             0.00    0.01             0.04    1.45
     1  CLSMAT  ................      0.00    0.10             0.00    0.00             0.00    0.08
     1  ORTHON  ................      0.01    0.43             0.00    0.02             0.01    0.35
     1  GENPT   ................      0.03    1.43             0.00    0.07             0.03    1.17
     1  PTBAS   ................      0.01    0.32             0.00    0.00             0.01    0.26
    15  FOCKY   ................      0.12   83.33             0.00   55.68             0.12   69.19
    15  FOCKTR  ................      0.00    0.86             0.00    0.29             0.00    0.71
    15  SDIIS   ................      0.00    2.36             0.00    5.61             0.00    2.05
     1  COREPS  ................      0.05    2.51             0.00    6.01             0.06    2.19
     1  POPAN   ................      0.02    0.86             0.00    0.00             0.02    0.70
     1  DEBYE   ................      0.00    0.11             0.00    0.00             0.00    0.09
     1  EXIT PROCEDURE .........      0.02    0.98             0.00    0.14             0.02    0.80


 Currently Open Files (EXIT00)
 ====================

 Unit    Access Format  Status   Type       Ident (file)
 -------------------------------------------------------
   3      SEQ    FORM   TRANSP  NORMAL      LOGFILE
                                          ( logfile )


 Buffered I/O statistics
 =======================
 Memory available:                     67108864
 Number of records fitting in memory:     16131
 Input :   0.0% of                        55672  *4k bytes
 Output:   5.5% of                         3777  *4k bytes
 Records from serial files evicted:           0
                    others evicted:           0
 Hash table lookups:     115988 with          0 conflicts (  0.00%)

 ***************************************************************************************************
 (LOGFILE)
 <Mar23-2019> <13:46:09>  ADF 2018  RunTime: Mar23-2019 13:46:09  Nodes: 1  Procs: 1
 <Mar23-2019> <13:46:09>  Argon (QZ, all electron, 11S 7P 3D 2F)
 <Mar23-2019> <13:46:09>  RunType   : CREATE
 <Mar23-2019> <13:46:09>  Net Charge: 0 (Nuclei minus Electrons)
 <Mar23-2019> <13:46:09>  Symmetry  : ATOM
  Coordinates
    Atom         X           Y           Z   (Angstrom)
    1.Ar        0.000000    0.000000    0.000000
 <Mar23-2019> <13:46:09>  >>>> CORORT
 <Mar23-2019> <13:46:09>  >>>> FITINT
 <Mar23-2019> <13:46:09>  >>>> CLSMAT
 <Mar23-2019> <13:46:09>  >>>> ORTHON
 <Mar23-2019> <13:46:09>  >>>> GENPT
 <Mar23-2019> <13:46:09>  Block Length= 128
 <Mar23-2019> <13:46:09>  >>>> PTBAS
 <Mar23-2019> <13:46:09>  >>>> CYCLE
 <Mar23-2019> <13:46:10>  CalcFitR12Fit
 <Mar23-2019> <13:46:10>  CalcFitCoeff
 <Mar23-2019> <13:46:10>              |Error|         MaxErr       Wt(A-DIIS)
 <Mar23-2019> <13:46:10>      1      0.00000000      0.00000000
 <Mar23-2019> <13:46:10>      2     45.92331625     11.20565573    100.0
 <Mar23-2019> <13:46:10>      3     17.69366334      5.97115446    100.0
 <Mar23-2019> <13:46:10>      4      7.01416777      2.32403405    100.0
 <Mar23-2019> <13:46:10>      5      2.78123170      1.27522635    100.0
 <Mar23-2019> <13:46:11>      6      1.16194801      0.43943121    100.0
 <Mar23-2019> <13:46:11>      7      0.38954596      0.16324240    100.0
 <Mar23-2019> <13:46:11>      8      0.12877503      0.04946429     49.0
 <Mar23-2019> <13:46:11>      9      0.01923144      0.00780274      6.9
 <Mar23-2019> <13:46:11>     10      0.00047828      0.00017333      0.0
 <Mar23-2019> <13:46:11>     11      0.00001040      0.00000366      0.0
 <Mar23-2019> <13:46:11>     12      0.00000083      0.00000034      0.0
 <Mar23-2019> <13:46:11>     13      0.00000004      0.00000001      0.0
 <Mar23-2019> <13:46:11>     14      0.00000001      0.00000000      0.0
 <Mar23-2019> <13:46:11>  SCF converged
 <Mar23-2019> <13:46:11>     15      0.00000000      0.00000000      0.0
 <Mar23-2019> <13:46:11>  >>>> POPAN
 <Mar23-2019> <13:46:11>  >>>> DEBYE
 <Mar23-2019> <13:46:11>  NORMAL TERMINATION
 <Mar23-2019> <13:46:11>  END


 Parallel Execution: Process Information
 ==============================================================================
 Rank   Node Name                              NodeID   MyNodeRank  NodeMaster
    0   vladimir-Kubuntu-16                       0          0          0
    1   vladimir-Kubuntu-16                       0          1         -1
    2   vladimir-Kubuntu-16                       0          2         -1
    3   vladimir-Kubuntu-16                       0          3         -1
 ==============================================================================


May use up to 7611MB of RAM as shared memory on node 0
 
Title Ar

ATOMS
 Ar        0.0000000000 0.0000000000 0.0000000000
END

CHARGE 0 0

XC
  HartreeFock
END

EPRINT
  SFO NOEIG NOOVL NOORBPOP
  SCF NOPOP
END

NOPRINT BAS FUNCTIONS

TOTALENERGY
NOTOTEN

Fragments
Ar t21.Ar
End

 *******************************************************************************
 *                                                                             *
 *  -------------------------------------                                      *
 *   Amsterdam Density Functional  (ADF)         2018                          *
 *  -------------------------------------                                      *
 *                                               r70630 2018-11-24             *
 *                                                                             *
 *                                                                             *
 *                              =================                              *
 *                              |               |                              *
 *                              |     A D F     |                              *
 *                              |               |                              *
 *                              =================                              *
 *                                                                             *
 *                                                                             *
 *   Online information and documentation:  https://www.scm.com/support/       *
 *   E-mail:  support@scm.com   info@scm.com                                   *
 *                                                                             *
 *   Scientific publications using ADF results must be properly referenced     *
 *   See the User Manuals (or the web site) for recommended citations          *
 *   The terms and conditions of the End User License Agreement apply to       *
 *   the use of ADF, https://www.scm.com/license-terms/                        *
 *                                                                             *
 **********************  x86_64_linux_intel / intelmpi  ************************
 
 Licensed to: Mr. Vladimir Konjkov / Florida Institute of Technology / Melbourne / Florida / USA
 SCM User ID: u21173
  
 ADF 2018  RunTime: Mar23-2019 13:46:12  Nodes: 1  Procs: 4

 Temporary files are created in /tmp/kid_0.1279223480


Communication costs MPI_COMM_WORLD:      0.456 usec per message,   0.0048 usec per 8-byte item
Communication costs for intra-node:      0.443 usec per message,   0.0048 usec per 8-byte item

 Ar



 ===========================
 A T T A C H E D   F I L E S
 ===========================
  



 ===============================
 M O D E L   P A R A M E T E R S
 ===============================
  
 DENSITY FUNCTIONAL POTENTIAL (scf)
    Hybrid:                            HARTREEFOCK                             == Not Default ==

 SPIN  (restricted / unrestr.)
    Molecule:                          Restricted                               
    Fragments:                         Restricted                               

 OTHER ASPECTS
    Relativistic Corrections:          ---                                      

    Nuclear Charge Density Model:      Point Charge Nuclei                      
    Core Treatment:                    Frozen Orbital(s)                        

    Hyperfine or Zeeman Interaction:   ---                                      


 Fragment File(s)
 ----------------
 Ar:
         file : t21.Ar
         jobid: ADF 2018  RunTime: Mar23-2019 13:46:09  Nodes: 1  Procs: 1
         title: Argon (QZ, all electron, 11S 7P 3D 2F)



                                        ************************************
                                        *  R U N   T Y P E : SINGLE POINT  *
                                        ************************************
  



 ===============
 G E O M E T R Y  ***  Single Atom  ***
 ===============
  

 ATOMS
 =====                            X Y Z                    CHARGE
                                (Angstrom)             Nucl     +Core       At.Mass
                       --------------------------    ----------------       -------
    1  Ar              0.0000    0.0000    0.0000     18.00     18.00       39.9624


 FRAGMENTS
 =========                                     Atoms in this Fragment     Cart. coord.s (Angstrom)
                                               -------------------------------------------------------
    1  Ar                                                1  Ar           0.0000    0.0000    0.0000



 =====================================
 S Y M M E T R Y ,   E L E C T R O N S
 =====================================
  
 Symmetry: ATOM

 Irreducible Representations, including subspecies
 -------------------------------------------------
 S
 P:x  P:y  P:z
 D:z2  D:x2-y2  D:xy  D:xz  D:yz
 F:z3  F:z  F:xyz  F:z2x  F:z2y  F:x  F:y


 Configuration of Valence Electrons
 ==================================
 ( determined in the SCF procedure )

 Total:   18

 Net Charge: 0 (Nuclei minus Electrons)

 Aufbau principle for MO occupations will be applied through SCF cycle no.     150
 Thereafter, the program will assign electrons to MOs that are spatially
 similar to the occupied MOs in a "reference" cycle ("KeepOrbitals").
 The reference cycle is always the PREVIOUS cycle: it will evolve with
 the SCF procedure.



 =======
 S F O s  ***  (Symmetrized Fragment Orbitals)  ***
 =======
  
 SFOs are linear combinations of (valence) Fragment Orbitals (FOs), such that the SFOs transform as the
 irreducible representations of the (molecular) symmetry group. Each SFO is therefore characterized by
 an irrep of the molecule and by a few (or only one) generating FOs.
 The SFOs constitute a symmetry-adapted basis for the Fock matrix. The MO eigenvector coefficients in
 this basis provide a direct interpretation of the MOs in terms of Frontier Orbital Theory.

 The SFOs are combined with auxiliary Core Functions (CFs) to ensure orthogonalization on the (frozen)
 Core Orbitals (COs). The Core-orthogonalized SFOs (CSFOs) constitute the true Fock basis.

 The FOs, and hence also the (C)SFOs are combinations of the elementary basis functions (BAS). The basis
 functions that participate in the description of the SFOs depend on the irrep. The indices of the
 involved functions are printed below for each irrep.
 (The complete list of primitive basis functions is printed in another section)

 Total nr. of (C)SFOs (summation over all irreps) :    61

 NOTE: a (C)SFO that is defined as a combination of more than one FO is usually NOT normalized.



                                       === S ===
 Nr. of SFOs :   11
 Cartesian basis functions that participate in this irrep (total number =    11) :
      1     2     3     4     5     6     7     8     9    10
     11

    SFO  (index         Fragment          Generating    Expansion in Fragment Orbitals
  indx  incl.CFs)   Occup   Orb.Energy   FragmentType  Coeff.   Orbital     on Fragment
 --------------------------------------------------------------------------------------
     1       1      2.000    -118.611 au  Ar            1.00      1 S               1
                        (   -3227.557 eV)
     2       2      2.000     -12.322 au  Ar            1.00      2 S               1
                        (    -335.307 eV)
     3       3      2.000      -1.277 au  Ar            1.00      3 S               1
                        (     -34.761 eV)
     4       4       --         0.081 au  Ar            1.00      4 S               1
                        (       2.191 eV)
     5       5       --         0.555 au  Ar            1.00      5 S               1
                        (      15.099 eV)
     6       6       --         2.270 au  Ar            1.00      6 S               1
                        (      61.771 eV)
     7       7       --         7.536 au  Ar            1.00      7 S               1
                        (     205.058 eV)
     8       8       --        25.332 au  Ar            1.00      8 S               1
                        (     689.317 eV)
     9       9       --        98.288 au  Ar            1.00      9 S               1
                        (    2674.565 eV)
    10      10       --       479.125 au  Ar            1.00     10 S               1
                        (   13037.643 eV)
    11      11       --      4267.085 au  Ar            1.00     11 S               1
                        (  116113.291 eV)



                                       === P:x ===
 Nr. of SFOs :    7
 Cartesian basis functions that participate in this irrep (total number =     7) :
     12    15    18    21    24    27    30

    SFO  (index         Fragment          Generating    Expansion in Fragment Orbitals
  indx  incl.CFs)   Occup   Orb.Energy   FragmentType  Coeff.   Orbital     on Fragment
 --------------------------------------------------------------------------------------
     1       1      2.000      -9.571 au  Ar            1.00      1 P:x             1
                        (    -260.451 eV)
     2       2      2.000      -0.591 au  Ar            1.00      2 P:x             1
                        (     -16.082 eV)
     3       3       --         0.238 au  Ar            1.00      3 P:x             1
                        (       6.477 eV)
     4       4       --         1.134 au  Ar            1.00      4 P:x             1
                        (      30.863 eV)
     5       5       --         3.970 au  Ar            1.00      5 P:x             1
                        (     108.026 eV)
     6       6       --        15.900 au  Ar            1.00      6 P:x             1
                        (     432.673 eV)
     7       7       --        89.604 au  Ar            1.00      7 P:x             1
                        (    2438.257 eV)



                                       === P:y ===
 Nr. of SFOs :    7
 Cartesian basis functions that participate in this irrep (total number =     7) :
     13    16    19    22    25    28    31

    SFO  (index         Fragment          Generating    Expansion in Fragment Orbitals
  indx  incl.CFs)   Occup   Orb.Energy   FragmentType  Coeff.   Orbital     on Fragment
 --------------------------------------------------------------------------------------
     1       1      2.000      -9.571 au  Ar            1.00      1 P:y             1
                        (    -260.451 eV)
     2       2      2.000      -0.591 au  Ar            1.00      2 P:y             1
                        (     -16.082 eV)
     3       3       --         0.238 au  Ar            1.00      3 P:y             1
                        (       6.477 eV)
     4       4       --         1.134 au  Ar            1.00      4 P:y             1
                        (      30.863 eV)
     5       5       --         3.970 au  Ar            1.00      5 P:y             1
                        (     108.026 eV)
     6       6       --        15.900 au  Ar            1.00      6 P:y             1
                        (     432.673 eV)
     7       7       --        89.604 au  Ar            1.00      7 P:y             1
                        (    2438.257 eV)



                                       === P:z ===
 Nr. of SFOs :    7
 Cartesian basis functions that participate in this irrep (total number =     7) :
     14    17    20    23    26    29    32

    SFO  (index         Fragment          Generating    Expansion in Fragment Orbitals
  indx  incl.CFs)   Occup   Orb.Energy   FragmentType  Coeff.   Orbital     on Fragment
 --------------------------------------------------------------------------------------
     1       1      2.000      -9.571 au  Ar            1.00      1 P:z             1
                        (    -260.451 eV)
     2       2      2.000      -0.591 au  Ar            1.00      2 P:z             1
                        (     -16.082 eV)
     3       3       --         0.238 au  Ar            1.00      3 P:z             1
                        (       6.477 eV)
     4       4       --         1.134 au  Ar            1.00      4 P:z             1
                        (      30.863 eV)
     5       5       --         3.970 au  Ar            1.00      5 P:z             1
                        (     108.026 eV)
     6       6       --        15.900 au  Ar            1.00      6 P:z             1
                        (     432.673 eV)
     7       7       --        89.604 au  Ar            1.00      7 P:z             1
                        (    2438.257 eV)



                                       === D:z2 ===
 Nr. of SFOs :    3
 Cartesian basis functions that participate in this irrep (total number =     9) :
     33    36    38    39    42    44    45    48    50

    SFO  (index         Fragment          Generating    Expansion in Fragment Orbitals
  indx  incl.CFs)   Occup   Orb.Energy   FragmentType  Coeff.   Orbital     on Fragment
 --------------------------------------------------------------------------------------
     1       1       --         0.304 au  Ar            1.00      1 D:z2            1
                        (       8.279 eV)
     2       2       --         0.890 au  Ar            1.00      2 D:z2            1
                        (      24.207 eV)
     3       3       --         3.592 au  Ar            1.00      3 D:z2            1
                        (      97.741 eV)



                                       === D:x2-y2 ===
 Nr. of SFOs :    3
 Cartesian basis functions that participate in this irrep (total number =     6) :
     33    36    39    42    45    48

    SFO  (index         Fragment          Generating    Expansion in Fragment Orbitals
  indx  incl.CFs)   Occup   Orb.Energy   FragmentType  Coeff.   Orbital     on Fragment
 --------------------------------------------------------------------------------------
     1       1       --         0.304 au  Ar            1.00      1 D:x2-y2         1
                        (       8.279 eV)
     2       2       --         0.890 au  Ar            1.00      2 D:x2-y2         1
                        (      24.207 eV)
     3       3       --         3.592 au  Ar            1.00      3 D:x2-y2         1
                        (      97.741 eV)



                                       === D:xy ===
 Nr. of SFOs :    3
 Cartesian basis functions that participate in this irrep (total number =     3) :
     34    40    46

    SFO  (index         Fragment          Generating    Expansion in Fragment Orbitals
  indx  incl.CFs)   Occup   Orb.Energy   FragmentType  Coeff.   Orbital     on Fragment
 --------------------------------------------------------------------------------------
     1       1       --         0.304 au  Ar            1.00      1 D:xy            1
                        (       8.279 eV)
     2       2       --         0.890 au  Ar            1.00      2 D:xy            1
                        (      24.207 eV)
     3       3       --         3.592 au  Ar            1.00      3 D:xy            1
                        (      97.741 eV)



                                       === D:xz ===
 Nr. of SFOs :    3
 Cartesian basis functions that participate in this irrep (total number =     3) :
     35    41    47

    SFO  (index         Fragment          Generating    Expansion in Fragment Orbitals
  indx  incl.CFs)   Occup   Orb.Energy   FragmentType  Coeff.   Orbital     on Fragment
 --------------------------------------------------------------------------------------
     1       1       --         0.304 au  Ar            1.00      1 D:xz            1
                        (       8.279 eV)
     2       2       --         0.890 au  Ar            1.00      2 D:xz            1
                        (      24.207 eV)
     3       3       --         3.592 au  Ar            1.00      3 D:xz            1
                        (      97.741 eV)



                                       === D:yz ===
 Nr. of SFOs :    3
 Cartesian basis functions that participate in this irrep (total number =     3) :
     37    43    49

    SFO  (index         Fragment          Generating    Expansion in Fragment Orbitals
  indx  incl.CFs)   Occup   Orb.Energy   FragmentType  Coeff.   Orbital     on Fragment
 --------------------------------------------------------------------------------------
     1       1       --         0.304 au  Ar            1.00      1 D:yz            1
                        (       8.279 eV)
     2       2       --         0.890 au  Ar            1.00      2 D:yz            1
                        (      24.207 eV)
     3       3       --         3.592 au  Ar            1.00      3 D:yz            1
                        (      97.741 eV)



                                       === F:z3 ===
 Nr. of SFOs :    2
 Cartesian basis functions that participate in this irrep (total number =     6) :
     53    58    60    63    68    70

    SFO  (index         Fragment          Generating    Expansion in Fragment Orbitals
  indx  incl.CFs)   Occup   Orb.Energy   FragmentType  Coeff.   Orbital     on Fragment
 --------------------------------------------------------------------------------------
     1       1       --         0.873 au  Ar            1.00      1 F:z3            1
                        (      23.754 eV)
     2       2       --         3.496 au  Ar            1.00      2 F:z3            1
                        (      95.122 eV)



                                       === F:z ===
 Nr. of SFOs :    2
 Cartesian basis functions that participate in this irrep (total number =     4) :
     53    58    63    68

    SFO  (index         Fragment          Generating    Expansion in Fragment Orbitals
  indx  incl.CFs)   Occup   Orb.Energy   FragmentType  Coeff.   Orbital     on Fragment
 --------------------------------------------------------------------------------------
     1       1       --         0.873 au  Ar            1.00      1 F:z             1
                        (      23.754 eV)
     2       2       --         3.496 au  Ar            1.00      2 F:z             1
                        (      95.122 eV)



                                       === F:xyz ===
 Nr. of SFOs :    2
 Cartesian basis functions that participate in this irrep (total number =     2) :
     55    65

    SFO  (index         Fragment          Generating    Expansion in Fragment Orbitals
  indx  incl.CFs)   Occup   Orb.Energy   FragmentType  Coeff.   Orbital     on Fragment
 --------------------------------------------------------------------------------------
     1       1       --         0.873 au  Ar            1.00      1 F:xyz           1
                        (      23.754 eV)
     2       2       --         3.496 au  Ar            1.00      2 F:xyz           1
                        (      95.122 eV)



                                       === F:z2x ===
 Nr. of SFOs :    2
 Cartesian basis functions that participate in this irrep (total number =     6) :
     51    54    56    61    64    66

    SFO  (index         Fragment          Generating    Expansion in Fragment Orbitals
  indx  incl.CFs)   Occup   Orb.Energy   FragmentType  Coeff.   Orbital     on Fragment
 --------------------------------------------------------------------------------------
     1       1       --         0.873 au  Ar            1.00      1 F:z2x           1
                        (      23.754 eV)
     2       2       --         3.496 au  Ar            1.00      2 F:z2x           1
                        (      95.122 eV)



                                       === F:z2y ===
 Nr. of SFOs :    2
 Cartesian basis functions that participate in this irrep (total number =     6) :
     52    57    59    62    67    69

    SFO  (index         Fragment          Generating    Expansion in Fragment Orbitals
  indx  incl.CFs)   Occup   Orb.Energy   FragmentType  Coeff.   Orbital     on Fragment
 --------------------------------------------------------------------------------------
     1       1       --         0.873 au  Ar            1.00      1 F:z2y           1
                        (      23.754 eV)
     2       2       --         3.496 au  Ar            1.00      2 F:z2y           1
                        (      95.122 eV)



                                       === F:x ===
 Nr. of SFOs :    2
 Cartesian basis functions that participate in this irrep (total number =     4) :
     51    54    61    64

    SFO  (index         Fragment          Generating    Expansion in Fragment Orbitals
  indx  incl.CFs)   Occup   Orb.Energy   FragmentType  Coeff.   Orbital     on Fragment
 --------------------------------------------------------------------------------------
     1       1       --         0.873 au  Ar            1.00      1 F:x             1
                        (      23.754 eV)
     2       2       --         3.496 au  Ar            1.00      2 F:x             1
                        (      95.122 eV)



                                       === F:y ===
 Nr. of SFOs :    2
 Cartesian basis functions that participate in this irrep (total number =     4) :
     52    57    62    67

    SFO  (index         Fragment          Generating    Expansion in Fragment Orbitals
  indx  incl.CFs)   Occup   Orb.Energy   FragmentType  Coeff.   Orbital     on Fragment
 --------------------------------------------------------------------------------------
     1       1       --         0.873 au  Ar            1.00      1 F:y             1
                        (      23.754 eV)
     2       2       --         3.496 au  Ar            1.00      2 F:y             1
                        (      95.122 eV)

 Total number of charge fitting functions (nprimf)       238
 Total number of Cartesian basis functions (naos)         70
 Total number of Cartesian core functions  (ncos)          0

1
 ***************************************************************************************************



                                              ***********************
                                              *  T E C H N I C A L  *
                                              ***********************
  



 =============================================================
 P A R A L L E L I Z A T I O N  and  V E C T O R I Z A T I O N
 =============================================================
  
 Nr of parallel processes:                                4
 Maximum vector length in NumInt loops:                 128

 IO buffersize (Mb):                                     64.000000



 =====================
 S C F   U P D A T E S
 =====================
  
 Max. nr. of cycles:                               300
 Convergence criterion:                              0.0000010000
   secondary criterion:                              0.0010000000

 Mix parameter (when DIIS does not apply):           0.2000000000
 Mixed ADIIS+DIIS will be used
    Max number of expansion vectors:                10
    Pure ADIIS when Max([F,P]) is above              0.1000000000
    Pure DIIS when Max([F,P]) is below               0.0010000000
 Automatic ElectronSmearing (in case of problematic SCF convergence) disabled



 =================
 P R E C I S I O N  ***  (General: NumInt, NeglectFunctionTails, ...)  ***
 =================
  

 NumInt:           Target precision:                 4.0000000000
 -------           Initial precision:                4.0000000000
                   Min. precision (optimization):    4.0000000000

 Neglect Functions:          Basis functions:        0.1000000000E-05
 ------------------          Fit functions:          0.1000000000E-05



 ===========================
 L I N E A R   S C A L I N G
 ===========================
  

 Cut-off radii density fit:                        0.1000000000E-07
 Overlap cut-off criterion AO matrix elements:     0.1000000000E-05
 Cut-offs for Coulomb potential and fitted density:0.1000000000E-07
 Cut-off criterion for Coulomb multipole terms:    0.1000000000E-07
 Progressive Convergence parameter:                 0.000000000    
1
 ***************************************************************************************************



                                            ***************************
                                            *  C O M P U T A T I O N  *
                                            ***************************
  

 Number of elements of the density matrix on this node (used, total):      2485      2485



 ===========================================
 Numerical Integration : Fuzzy Cells (Becke)
 ===========================================
  
 Becke grid quality: NORMAL         
  
 Lebedev angular grid order:             min:  11 max:  23
 Nr. of radial points:                   min:  92 max:  92

 Total nr. of points:         92
 Nr. of blocks:                1
 Block length:                92
 Nr. of dummy points:          0


 Test of Precision of the Numerical Integration Grid
 ===================================================

 Integral of the Total Core Density:                   0.00000000000000



 ========================
 Density Fitting (zlmFit)
 ========================
  
 ZlmFit Fit Quality: NORMAL         
  
 Max L-expansion:                        min:   7 max:   7
 Nr. of radial interpolation points:     min:  87 max:  87



 ======================
 RI Hartree-Fock Scheme
 ======================
  
 Fit Set Quality     : NORMAL
 Integration Quality : NORMAL
 Threshold Quality   : NORMAL
 Response Quality    : DEFAULT
 Is Range Separated  :  F
 
 RIHartreeFock Dependency: number of modified vectors:           4



 =====
 S C F  ***  ScaSCF  ***
 =====
  
 Initial density matrix is calculated as sum of fragments

 CYCLE    1
 Orbital Data from active fragment used
 SCF Error: norm([F,P])=      0.002341491190, max([F,P])=      0.000723642018
 orbitals (Q,E):
 ---------------
 S :1...11           ( 2.00  -118.6134)  ( 2.00   -12.3237)  ( 2.00    -1.2780)  ( 0.00     0.0804)
                     ( 0.00     0.5546)  ( 0.00     2.2696)  ( 0.00     7.5350)  ( 0.00    25.3307)
                     ( 0.00    98.2865)  ( 0.00   479.1219)  ( 0.00  4267.0820)
 P :1...7            ( 6.00    -9.5729)  ( 6.00    -0.5915)  ( 0.00     0.2378)  ( 0.00     1.1338)
                     ( 0.00     3.9692)  ( 0.00    15.8992)  ( 0.00    89.6021)
 D :1...3            ( 0.00     0.3040)  ( 0.00     0.8891)  ( 0.00     3.5911)
 F :1...2            ( 0.00     0.8727)  ( 0.00     3.4951)

 CYCLE    2
  SDIIS (wt  0.000):  0.2153  0.7847
 A-DIIS (wt  1.000):  0.0000  1.0000
  DIIS coefficients:  0.0000  1.0000
 SCF Error: norm([F,P])=      0.000648625085, max([F,P])=      0.000175059464
 orbitals (Q,E):
 ---------------
 S :1...4            ( 2.00  -118.6121)  ( 2.00   -12.3229)  ( 2.00    -1.2778)  ( 0.00     0.0804)
 P :1...3            ( 6.00    -9.5721)  ( 6.00    -0.5913)  ( 0.00     0.2379)
 D :1...1            ( 0.00     0.3041)
 F :1...1            ( 0.00     0.8728)

 CYCLE    3
  SDIIS (wt  0.000): -0.0051  0.2144  0.7906
 A-DIIS (wt  1.000):  0.0000  0.0000  1.0000
  DIIS coefficients:  0.0000  0.0000  1.0000
 SCF Error: norm([F,P])=      0.000190747817, max([F,P])=      0.000052275251
 orbitals (Q,E):
 ---------------
 S :1...4            ( 2.00  -118.6125)  ( 2.00   -12.3232)  ( 2.00    -1.2778)  ( 0.00     0.0804)
 P :1...3            ( 6.00    -9.5724)  ( 6.00    -0.5914)  ( 0.00     0.2379)
 D :1...1            ( 0.00     0.3041)
 F :1...1            ( 0.00     0.8727)

 CYCLE    4
  SDIIS (wt  1.000): -0.0254  0.1714  0.8540
  DIIS coefficients: -0.0254  0.1714  0.8540
 SCF Error: norm([F,P])=      0.000057532655, max([F,P])=      0.000015565306
 orbitals (Q,E):
 ---------------
 S :1...4            ( 2.00  -118.6124)  ( 2.00   -12.3231)  ( 2.00    -1.2778)  ( 0.00     0.0804)
 P :1...3            ( 6.00    -9.5723)  ( 6.00    -0.5913)  ( 0.00     0.2379)
 D :1...1            ( 0.00     0.3041)
 F :1...1            ( 0.00     0.8728)

 CYCLE    5
  SDIIS (wt  1.000): -0.0040 -0.0187 -0.0148  1.0375
  DIIS coefficients: -0.0040 -0.0187 -0.0148  1.0375
 SCF Error: norm([F,P])=      0.000000212743, max([F,P])=      0.000000083173
 orbitals (Q,E):
 ---------------
 S :1...4            ( 2.00  -118.6124)  ( 2.00   -12.3231)  ( 2.00    -1.2778)  ( 0.00     0.0804)
 P :1...3            ( 6.00    -9.5723)  ( 6.00    -0.5913)  ( 0.00     0.2379)
 D :1...1            ( 0.00     0.3041)
 F :1...1            ( 0.00     0.8728)

 SCF CONVERGED

 CYCLE    6
1
 ***************************************************************************************************



                                                *******************
                                                *  R E S U L T S  *
                                                *******************
  
  
 Hartree-Fock exchange energy:   -30.1859017942879     
 *** Setting up for NEW gradients in Focky
 *** Using FIT density in Focky

 Orbital Energies, per Irrep and Spin:
 ======================================
                        Occup              E (au)              E (eV)       Diff (eV) with prev. cycle
                        -----      --------------------        ------       --------------------------
 S
               1        2.000     -0.11861242063552E+03     -3227.608               5.07E-07
               2        2.000     -0.12323121611059E+02      -335.329               4.80E-07
               3        2.000     -0.12778045266218E+01       -34.771               2.83E-07
               4        0.000      0.80371315827264E-01         2.187
               5        0.000      0.55466777553627E+00        15.093
               6        0.000      0.22697482156552E+01        61.763
               7        0.000      0.75353096486718E+01       205.046
               8        0.000      0.25331226386425E+02       689.298
               9        0.000      0.98287253368610E+02      2674.532
              10        0.000      0.47912291224855E+03     13037.598
              11        0.000      0.42670831081696E+04    116113.239
 P
               1        6.000     -0.95723164515737E+01      -260.476               4.92E-07
               2        6.000     -0.59134808508852E+00       -16.091               2.00E-07
               3        0.000      0.23785504916691E+00         6.472
               4        0.000      0.11339156708249E+01        30.855
               5        0.000      0.39694841457848E+01       108.015
               6        0.000      0.15899673281776E+02       432.652
               7        0.000      0.89602951022101E+02      2438.220
 D
               1        0.000      0.30407481476258E+00         8.274
               2        0.000      0.88928740311741E+00        24.199
               3        0.000      0.35914682219087E+01        97.729
 F
               1        0.000      0.87275043826568E+00        23.749
               2        0.000      0.34953453919799E+01        95.113
  
 HOMO :        2 P                -0.59134808508852E+00
 LUMO :        4 S                 0.80371315827264E-01
  


 Orbital Energies, all Irreps
 ========================================

 Irrep        no.  (spin)   Occup              E (au)                E (eV)
 ---------------------------------------------------------------------------
 S             1             2.00       -0.11861242063552E+03     -3227.6082
 S             2             2.00       -0.12323121611059E+02      -335.3292
 P             1             6.00       -0.95723164515737E+01      -260.4760
 S             3             2.00       -0.12778045266218E+01       -34.7708
 P             2             6.00       -0.59134808508852E+00       -16.0914
 S             4             0.00        0.80371315827264E-01         2.1870
 P             3             0.00        0.23785504916691E+00         6.4724
 D             1             0.00        0.30407481476258E+00         8.2743
 S             5             0.00        0.55466777553627E+00        15.0933
 F             1             0.00        0.87275043826568E+00        23.7487
 D             2             0.00        0.88928740311741E+00        24.1987
 P             4             0.00        0.11339156708249E+01        30.8554
 S             6             0.00        0.22697482156552E+01        61.7630
 F             2             0.00        0.34953453919799E+01        95.1132
 D             3             0.00        0.35914682219087E+01        97.7288
 P             5             0.00        0.39694841457848E+01       108.0152
 S             7             0.00        0.75353096486718E+01       205.0462
 P             6             0.00        0.15899673281776E+02       432.6521
 S             8             0.00        0.25331226386425E+02       689.2977
 P             7             0.00        0.89602951022101E+02      2438.2204
 S             9             0.00        0.98287253368610E+02      2674.5322
 S            10             0.00        0.47912291224855E+03     13037.5978
 S            11             0.00        0.42670831081696E+04    116113.2393


 All Electron Calculation, thus no Orbital Energies of the Core Orbitals are calculated



 =======================
 T O T A L   E N E R G Y  ***  (contributions)  ***
 =======================
  

*** Note ***

The requirements to the integration accuracy are somewhat higher than for bond energies.
One can expect an accuracy of roughly (accint-2) decimal places, where accint is the
general integration accuracy parameter.
The Coulomb energy is the sum of the Hartree energy (electron-electron Coulomb interaction)
and the nuclear-electron attraction energy. It includes the correction for the first-order
fit error in the Hartree energy.
The potential energy is the sum of the nuclear repulsion energy, the Coulomb energy,
and the exchange-correlation energy.

Kinetic energy           =          526.819874400356

Nuclear repulsion energy =            0.000000000000
Coulomb energy           =        -1023.445661583802
XC energy                =          -30.185901794288
Total potential energy   =        -1053.631563378090

----------------------------------------------------
Total energy             =         -526.811688977734
Virial theorem           =            1.999984462578
----------------------------------------------------

 Gross Charges per Atom (Z minus electrons)
 ==========================================
            -0.0000
 Net Total: -0.00000000



 =================================================================
 M U L T I P O L E   D E R I V E D   C H A R G E   A N A L Y S I S
 =================================================================

 This charge analysis uses the atomic multipoles (obtained from the fitted density) up to some level X,
 and reconstructs these multipoles exactly (up to level X) by distributing charges over all atoms.
 This is achieved by using Lagrange multipliers and a weight function to keep the multipoles local.

 Dummy atoms can be included (by setting INCDUM in MDC-block to 1) to obtain a fractional charge.
 This is generally useful and necessary only for small symmetrical molecules, when there are not
 enough degrees of freedom to reconstruct the multipoles.

 Since the atomic multipoles are reconstructed up to level X,
 the molecular multipoles are represented also up to level X.
 The recommended level is to reconstruct up to quadrupole : -> MDC-q charges.

 See: M. Swart, P.Th. van Duijnen, J.G. Snijders, J.Comput.Chem., (2001), p. 79-88.

 ------------------------------------------------------------- 
 Atomic electronic multipole moments from SCF equations (a.u.)
 ------------------------------------------------------------- 

   atom        charge        dip-x     dip-y     dip-z      quad-xx   quad-xy   quad-xz   quad-yy   quad-yz   quad-zz
 --------------------------------------------------------------------------------------------------------------------
    1 Ar     0.000000    -0.000000 -0.000000  0.000000     0.000000  0.000000  0.000000  0.000000  0.000000 -0.000000

 --------------------------------------- 
 Multipole derived atomic charges (a.u.)
 --------------------------------------- 

 The MDC-m charges are just the Monopole terms in the multipole expansion, while for the MDC-d charges
 also the Dipoles are reconstructed. The usually preferred charges are the MDC-q charges.
 These reconstruct the Monopoles, Dipoles and Quadrupoles (both atomic AND molecular).

        Atom    Level:     MDC-m        MDC-d        MDC-q
 ---------------------------------------------------------
     1     Ar           0.000000     0.000000     0.000000

 ------------------------------------------------ 
 Average absolute deviations in atomic multipoles
 ------------------------------------------------ 

 Stated here are the average differences between the atomic multipoles
 and the reconstructed atomic multipoles (from the distributed charges).
 If these values are not zero, this means there are not enough degrees of freedom,
 to be able to reconstruct the atomic multipoles. (This usually happens only
 for small and/or highly symmetric molecules). If this is the case, one could add
 dummy atoms as extra point charges (and setting INCDUM in MDC-block to 1).

 Level:                                 MDC-d        MDC-q
 ---------------------------------------------------------
 Charge   (a.u.)                       0.0000       0.0000
 Dipole   (Debye)                      0.0000       0.0000
 Quad.    (a.u.)                       0.0000       0.0000

 --------------------------------------- 
 Represented molecular multipole moments
 --------------------------------------- 

 Given here are the Molecular multipole moments from the atomic charges, and from the Fit Density.
 Note that the atomic charges represent the latter, NOT the ones from the Exact density.

            Q (a.u.)             Dipole moment (Debye)                                          Quadrupole moment (a.u.)
                                 x         y         z              xx        xy        xz        yy        yz        zz
------------------------------------------------------------------------------------------------------------------------
MDC-m         0.0000        0.0000    0.0000    0.0000          0.0000    0.0000    0.0000    0.0000    0.0000    0.0000
MDC-d         0.0000        0.0000    0.0000    0.0000          0.0000    0.0000    0.0000    0.0000    0.0000    0.0000
MDC-q         0.0000        0.0000    0.0000    0.0000          0.0000    0.0000    0.0000    0.0000    0.0000    0.0000
 
Fit.Dens.     0.0000       -0.0000   -0.0000    0.0000          0.0000    0.0000    0.0000    0.0000    0.0000   -0.0000



 =============
 Dipole Moment  ***  (Debye)  ***
 =============
  
 Vector   :         0.00000000      0.00000000      0.00000000
 Magnitude:         0.00000000

 This molecular dipole moment is calculated with analytic integration



 =========================================
 Quadrupole Moment (Buckingham convention)  ***  (a.u.)  ***
 =========================================
  
      quad-xx        quad-xy        quad-xz        quad-yy        quad-yz        quad-zz
      0.00000000     0.00000000     0.00000000    -0.00000000     0.00000000    -0.00000000

 This molecular quadrupole moment is calculated with analytic integration



 =======================================================================
 Electrostatic potential at the Nuclei due to electrons and other nuclei
 =======================================================================
  
         Atom                  Potential
         ----                  ---------
     1)   Ar                 69.72278949
 
 
 ========================
 No memory problems found
 ========================
 
 Maximum number of active allocate calls:         722
 
 *******************************************************************************

                             A D F   E X I T
 NORMAL TERMINATION



 =================
 Timing Statistics
 =================
  
 Total Used :                     CPU=        2.13      System=        0.14     Elapsed=        3.24

 Calls  Section                     ( Mean, Percentage )
 ---------------------------------------------------------------------------------------------------
     3  ><      ................      0.00    0.11             0.00    1.45             0.00    0.15
     1  INIT    ................      0.47   22.16             0.00    2.56             0.91   28.06
     1  GEOMET  ................      0.08    3.86             0.03   19.53             0.11    3.40
     1  FRAGM   ................      0.02    1.15             0.00    2.81             0.03    1.08
     1  INPUTA  ................      0.00    0.13             0.00    0.00             0.00    0.09
     1  ATDEN   ................      0.00    0.07             0.00    3.00             0.01    0.17
     1  MAINSY  ................      0.03    1.34             0.00    2.89             0.03    1.05
     1  SYMFIT  ................      0.00    0.09             0.00    0.00             0.00    0.06
     1  CORORT  ................      0.00    0.07             0.00    0.07             0.00    0.05
     1  SYMORB  ................      0.00    0.15             0.00    0.00             0.00    0.10
     1  FITINT  ................      0.04    1.72             0.00    0.01             0.04    1.14
     1  CLSMAT  ................      0.00    0.12             0.00    0.00             0.00    0.08
     1  ORTHON  ................      0.01    0.60             0.00    0.00             0.01    0.40
     1  GENPT   ................      0.03    1.35             0.00    1.82             0.03    0.97
     1  PTBAS   ................      0.07    3.23             0.01    7.83             0.11    3.52
     6  FOCKY   ................      0.15   43.17             0.01   41.73             0.20   36.82
     6  FOCKTR  ................      0.05   13.43             0.00   14.48             0.08   14.93
     6  SDIIS   ................      0.01    1.76             0.00    0.69             0.01    1.75
     1  COREPS  ................      0.03    1.39             0.00    0.59             0.06    1.80
     1  POPAN   ................      0.06    2.66             0.00    0.46             0.09    2.90
     1  DEBYE   ................      0.01    0.37             0.00    0.00             0.01    0.46
     1  EXIT PROCEDURE .........      0.02    1.07             0.00    0.08             0.03    1.05


 Currently Open Files (EXIT00)
 ====================

 Unit    Access Format  Status   Type       Ident (file)
 -------------------------------------------------------
   3      SEQ    FORM   TRANSP  NORMAL      LOGFILE
                                          ( logfile )


 Buffered I/O statistics
 =======================
 Memory available:                     67108864
 Number of records fitting in memory:     16131
 Input :   0.2% of                        41832  *4k bytes
 Output:   8.5% of                         3174  *4k bytes
 Records from serial files evicted:           0
                    others evicted:           0
 Hash table lookups:      88445 with          0 conflicts (  0.00%)

 ***************************************************************************************************
 (LOGFILE)
 <Mar23-2019> <13:46:09>  ADF 2018  RunTime: Mar23-2019 13:46:09  Nodes: 1  Procs: 1
 <Mar23-2019> <13:46:09>  Argon (QZ, all electron, 11S 7P 3D 2F)
 <Mar23-2019> <13:46:09>  RunType   : CREATE
 <Mar23-2019> <13:46:09>  Net Charge: 0 (Nuclei minus Electrons)
 <Mar23-2019> <13:46:09>  Symmetry  : ATOM
  Coordinates
    Atom         X           Y           Z   (Angstrom)
    1.Ar        0.000000    0.000000    0.000000
 <Mar23-2019> <13:46:09>  >>>> CORORT
 <Mar23-2019> <13:46:09>  >>>> FITINT
 <Mar23-2019> <13:46:09>  >>>> CLSMAT
 <Mar23-2019> <13:46:09>  >>>> ORTHON
 <Mar23-2019> <13:46:09>  >>>> GENPT
 <Mar23-2019> <13:46:09>  Block Length= 128
 <Mar23-2019> <13:46:09>  >>>> PTBAS
 <Mar23-2019> <13:46:09>  >>>> CYCLE
 <Mar23-2019> <13:46:10>  CalcFitR12Fit
 <Mar23-2019> <13:46:10>  CalcFitCoeff
 <Mar23-2019> <13:46:10>              |Error|         MaxErr       Wt(A-DIIS)
 <Mar23-2019> <13:46:10>      1      0.00000000      0.00000000
 <Mar23-2019> <13:46:10>      2     45.92331625     11.20565573    100.0
 <Mar23-2019> <13:46:10>      3     17.69366334      5.97115446    100.0
 <Mar23-2019> <13:46:10>      4      7.01416777      2.32403405    100.0
 <Mar23-2019> <13:46:10>      5      2.78123170      1.27522635    100.0
 <Mar23-2019> <13:46:11>      6      1.16194801      0.43943121    100.0
 <Mar23-2019> <13:46:11>      7      0.38954596      0.16324240    100.0
 <Mar23-2019> <13:46:11>      8      0.12877503      0.04946429     49.0
 <Mar23-2019> <13:46:11>      9      0.01923144      0.00780274      6.9
 <Mar23-2019> <13:46:11>     10      0.00047828      0.00017333      0.0
 <Mar23-2019> <13:46:11>     11      0.00001040      0.00000366      0.0
 <Mar23-2019> <13:46:11>     12      0.00000083      0.00000034      0.0
 <Mar23-2019> <13:46:11>     13      0.00000004      0.00000001      0.0
 <Mar23-2019> <13:46:11>     14      0.00000001      0.00000000      0.0
 <Mar23-2019> <13:46:11>  SCF converged
 <Mar23-2019> <13:46:11>     15      0.00000000      0.00000000      0.0
 <Mar23-2019> <13:46:11>  >>>> POPAN
 <Mar23-2019> <13:46:11>  >>>> DEBYE
 <Mar23-2019> <13:46:11>  NORMAL TERMINATION
 <Mar23-2019> <13:46:11>  END
 <Mar23-2019> <13:46:12>  ADF 2018  RunTime: Mar23-2019 13:46:12  Nodes: 1  Procs: 4
 <Mar23-2019> <13:46:13>  Ar
 <Mar23-2019> <13:46:13>  RunType   : SINGLE POINT
 <Mar23-2019> <13:46:13>  Net Charge: 0 (Nuclei minus Electrons)
 <Mar23-2019> <13:46:13>  Symmetry  : ATOM
 <Mar23-2019> <13:46:13>  >>>> FRAGM
  Coordinates
    Atom         X           Y           Z   (Angstrom)
    1.Ar        0.000000    0.000000    0.000000
 <Mar23-2019> <13:46:13>  >>>> CORORT
 <Mar23-2019> <13:46:13>  >>>> FITINT
 <Mar23-2019> <13:46:13>  >>>> CLSMAT
 <Mar23-2019> <13:46:13>  >>>> ORTHON
 <Mar23-2019> <13:46:13>  >>>> GENPT
 <Mar23-2019> <13:46:13>  Block Length=  92
 <Mar23-2019> <13:46:13>  >>>> PTBAS
 <Mar23-2019> <13:46:13>  >>>> CYCLE
 <Mar23-2019> <13:46:13>  CalcFitR12Fit
 <Mar23-2019> <13:46:13>  CalcFitCoeff
 <Mar23-2019> <13:46:14>  Orbital Data from active fragment used
 <Mar23-2019> <13:46:14>              |Error|         MaxErr       Wt(A-DIIS)
 <Mar23-2019> <13:46:14>      1      0.00234149      0.00072364
 <Mar23-2019> <13:46:14>      2      0.00064863      0.00017506    100.0
 <Mar23-2019> <13:46:14>      3      0.00019075      0.00005228    100.0
 <Mar23-2019> <13:46:14>      4      0.00005753      0.00001557      0.0
 <Mar23-2019> <13:46:15>      5      0.00000021      0.00000008      0.0
 <Mar23-2019> <13:46:15>  SCF converged
 <Mar23-2019> <13:46:15>      6      0.00000002      0.00000001      0.0
 <Mar23-2019> <13:46:15>   Total energy       -526.81168898 a.u.
 <Mar23-2019> <13:46:15>  >>>> POPAN
 <Mar23-2019> <13:46:15>  >>>> DEBYE
 <Mar23-2019> <13:46:15>  NORMAL TERMINATION
 <Mar23-2019> <13:46:15>  END
