 
Create He   file=QZ4P-He
XC
  HartreeFock
End
  HartreeFock

 *******************************************************************************
 *                                                                             *
 *  -------------------------------------                                      *
 *   Amsterdam Density Functional  (ADF)         2018                          *
 *  -------------------------------------                                      *
 *                                               r70630 2018-11-24             *
 *                                                                             *
 *                                                                             *
 *                              =================                              *
 *                              |               |                              *
 *                              |     A D F     |                              *
 *                              |               |                              *
 *                              =================                              *
 *                                                                             *
 *                                                                             *
 *   Online information and documentation:  https://www.scm.com/support/       *
 *   E-mail:  support@scm.com   info@scm.com                                   *
 *                                                                             *
 *   Scientific publications using ADF results must be properly referenced     *
 *   See the User Manuals (or the web site) for recommended citations          *
 *   The terms and conditions of the End User License Agreement apply to       *
 *   the use of ADF, https://www.scm.com/license-terms/                        *
 *                                                                             *
 **********************  x86_64_linux_intel / intelmpi  ************************
 
 Licensed to: Mr. Vladimir Konjkov / Florida Institute of Technology / Melbourne / Florida / USA
 SCM User ID: u21173
  
 ADF 2018  RunTime: Mar23-2019 13:46:45  Nodes: 1  Procs: 1

 Temporary files are created in /tmp/kid_0.1642435321

 Helium (QZ, all electron, 5S 2P 2D)



 ===========================
 A T T A C H E D   F I L E S
 ===========================
  
 CREATE - Data File:    QZ4P-He
                        Helium (QZ, all electron, 5S 2P 2D)



 ===============================
 M O D E L   P A R A M E T E R S
 ===============================
  
 DENSITY FUNCTIONAL POTENTIAL (scf)
    Hybrid:                            HARTREEFOCK                             == Not Default ==

 SPIN  (restricted / unrestr.)
    Molecule:                          Restricted                               

 OTHER ASPECTS
    Relativistic Corrections:          ---                                      

    Nuclear Charge Density Model:      Point Charge Nuclei                      
    Core Treatment:                    Frozen Orbital(s)                        

    Hyperfine or Zeeman Interaction:   ---                                      



 =====================================
 S Y M M E T R Y ,   E L E C T R O N S
 =====================================
  
 Symmetry: ATOM

 Irreducible Representations, including subspecies
 -------------------------------------------------
 S
 P:x  P:y  P:z
 D:z2  D:x2-y2  D:xy  D:xz  D:yz
 F:z3  F:z  F:xyz  F:z2x  F:z2y  F:x  F:y


 Configuration of Valence Electrons
 ==================================

          Occupation Numbers
          -------------------------------------------------
 S        2
 P        0
 D        0
 F        0
          -------------------------------------------------

 Total:   2

 Net Charge: 0 (Nuclei minus Electrons)

 Preset values for MO occupations will be applied through SCF cycle no. 1000000
 Thereafter, the program will assign electrons to MOs that are spatially
 similar to the occupied MOs in a "reference" cycle ("KeepOrbitals").
 The reference cycle is always the PREVIOUS cycle: it will evolve with
 the SCF procedure.



 ================================
 (Slater-type)  F U N C T I O N S  ***  (Basis and Fit)  ***
 ================================
  

 Atom Type    1  (He)
 ==============

 Valence Basis Sets:   9
 -----------------------
   1 S    7.000000
   1 S    3.200000
   1 S    1.700000
   1 S    1.160000
   1 S    0.600000
   2 P    1.500000
   2 P    0.750000
   3 D    2.500000
   3 D    1.250000

 Charge Fitting Sets (for the computation of the Coulomb Potential):  23
 -----------------------------------------------------------------------
   1 S   14.000000
   1 S   10.780000
   1 S    8.310000
   1 S    6.400000
   1 S    4.240000
   1 S    2.810000
   1 S    1.860000
   1 S    1.230000
   1 S    0.820000
   2 S    1.000000
   2 P    4.700000
   2 P    3.100000
   2 P    2.050000
   2 P    1.350000
   3 D    5.700000
   3 D    3.650000
   3 D    2.340000
   3 D    1.500000
   4 F    4.000000
   4 F    2.830000
   4 F    2.000000
   5 G    5.000000
   5 G    2.500000


 BAS: List of all Elementary Cartesian Basis Functions
 =====================================================

 The numbering in the list below (to the right of the function characteristics) is referred
 to in print-outs of MO eigenvectors and Mulliken populations in the BAS representation
 (as contrasted to the SFO representation).

 Notes:
 1. The functions are characterized by a polynomial prefactor (powers of x,y,z and r) and
    an exponential decay factor alpha.
 2. Since the basis sets are specific for an atom TYPE, the individual functions occur on
    all atoms of that type.
 3. The word 'Core' in the left margin signals that it is a Core Function (CF) : not a
    degree of freedom in the valence set, but only used to ensure orthogonalization of
    the other valence basis functions on the frozen Core Orbitals.


 (power of) X  Y  Z  R     Alpha  on Atom
            ==========     =====     ==========

 He                                   1
                                  ---------------------------------------------------------------------------
            0  0  0  0     7.000      1
            0  0  0  0     3.200      2
            0  0  0  0     1.700      3
            0  0  0  0     1.160      4
            0  0  0  0     0.600      5
            1  0  0  0     1.500      6
            0  1  0  0     1.500      7
            0  0  1  0     1.500      8
            1  0  0  0     0.750      9
            0  1  0  0     0.750     10
            0  0  1  0     0.750     11
            2  0  0  0     2.500     12
            1  1  0  0     2.500     13
            1  0  1  0     2.500     14
            0  2  0  0     2.500     15
            0  1  1  0     2.500     16
            0  0  2  0     2.500     17
            2  0  0  0     1.250     18
            1  1  0  0     1.250     19
            1  0  1  0     1.250     20
            0  2  0  0     1.250     21
            0  1  1  0     1.250     22
            0  0  2  0     1.250     23

 Total number of charge fitting functions (nprimf)       106
 Total number of Cartesian basis functions (naos)         23
 Total number of Cartesian core functions  (ncos)          0



 BAS: List of all Elementary Cartesian Basis Functions
 =====================================================

 The numbering in the list below (to the right of the function characteristics) is referred
 to in print-outs of MO eigenvectors and Mulliken populations in the BAS representation
 (as contrasted to the SFO representation).

 Notes:
 1. The functions are characterized by a polynomial prefactor (powers of x,y,z and r) and
    an exponential decay factor alpha.
 2. Since the basis sets are specific for an atom TYPE, the individual functions occur on
    all atoms of that type.
 3. The word 'Core' in the left margin signals that it is a Core Function (CF) : not a
    degree of freedom in the valence set, but only used to ensure orthogonalization of
    the other valence basis functions on the frozen Core Orbitals.


 (power of) X  Y  Z  R     Alpha  on Atom
            ==========     =====     ==========

 He                                   1
                                  ---------------------------------------------------------------------------
            0  0  0  0     7.000      1
            0  0  0  0     3.200      2
            0  0  0  0     1.700      3
            0  0  0  0     1.160      4
            0  0  0  0     0.600      5
            1  0  0  0     1.500      6
            0  1  0  0     1.500      7
            0  0  1  0     1.500      8
            1  0  0  0     0.750      9
            0  1  0  0     0.750     10
            0  0  1  0     0.750     11
            2  0  0  0     2.500     12
            1  1  0  0     2.500     13
            1  0  1  0     2.500     14
            0  2  0  0     2.500     15
            0  1  1  0     2.500     16
            0  0  2  0     2.500     17
            2  0  0  0     1.250     18
            1  1  0  0     1.250     19
            1  0  1  0     1.250     20
            0  2  0  0     1.250     21
            0  1  1  0     1.250     22
            0  0  2  0     1.250     23
1
 ***************************************************************************************************



                                              ***********************
                                              *  T E C H N I C A L  *
                                              ***********************
  



 =============================================================
 P A R A L L E L I Z A T I O N  and  V E C T O R I Z A T I O N
 =============================================================
  
 Nr of parallel processes:                                1
 Maximum vector length in NumInt loops:                 128

 IO buffersize (Mb):                                     64.000000



 =====================
 S C F   U P D A T E S
 =====================
  
 Max. nr. of cycles:                               300
 Convergence criterion:                              0.0000000100
   secondary criterion:                              0.0000000100

 Mix parameter (when DIIS does not apply):           0.2000000000
 Special mix parameter for the first cycle:          1.0000000000
 Mixed ADIIS+DIIS will be used
    Max number of expansion vectors:                10
    Pure ADIIS when Max([F,P]) is above              0.1000000000
    Pure DIIS when Max([F,P]) is below               0.0010000000
 Automatic ElectronSmearing (in case of problematic SCF convergence) disabled



 =================
 P R E C I S I O N  ***  (General: NumInt, NeglectFunctionTails, ...)  ***
 =================
  

 NumInt:           Target precision:                12.0000000000
 -------           Initial precision:               10.0000000000
                   Min. precision (optimization):   10.0000000000

 Neglect Functions:          Basis functions:        0.1000000000E-13
 ------------------          Fit functions:          0.1000000000E-13



 ===========================
 L I N E A R   S C A L I N G
 ===========================
  

 Cut-off radii density fit:                        0.1000000000E-97
 Overlap cut-off criterion AO matrix elements:     0.1000000000E-97
 Cut-offs for Coulomb potential and fitted density:0.1000000000E-97
 Cut-off criterion for Coulomb multipole terms:    0.1000000000E-97
 Progressive Convergence parameter:                 0.000000000    
1
 ***************************************************************************************************



                                            ***************************
                                            *  C O M P U T A T I O N  *
                                            ***************************
  

 Number of elements of the density matrix on this node (used, total):       276       276



 ===========================================
 Numerical Integration : Fuzzy Cells (Becke)
 ===========================================
  
 Becke grid quality: VERYGOOD       
  
 Lebedev angular grid order:             min:  13 max:  41
 Nr. of radial points:                   min:  68 max:  68

 Total nr. of points:         68
 Nr. of blocks:                1
 Block length:                68
 Nr. of dummy points:          0


 Test of Precision of the Numerical Integration Grid
 ===================================================

 Integral of the Total Core Density:                   0.00000000000000



 ========================
 Density Fitting (zlmFit)
 ========================
  
 ZlmFit Fit Quality: VERYGOOD       
  
 Max L-expansion:                        min:   0 max:   0
 Nr. of radial interpolation points:     min: 150 max: 150



 ======================
 RI Hartree-Fock Scheme
 ======================
  
 Fit Set Quality     : NORMAL
 Integration Quality : NORMAL
 Threshold Quality   : NORMAL
 Response Quality    : DEFAULT
 Is Range Separated  :  F
 
 RIHartreeFock Dependency: number of modified vectors:           0



 =====
 S C F  ***  ScaSCF  ***
 =====
  

 CYCLE    1
 SCF Error: norm([F,P])=      0.000000000000, max([F,P])=      0.000000000000
 orbitals (Q,E):
 ---------------
 S :1...5            ( 2.00    -1.9998)  ( 0.00    -0.4966)  ( 0.00    -0.0993)  ( 0.00     3.0295)
                     ( 0.00    38.0058)
 P :1...2            ( 0.00    -0.4922)  ( 0.00    -0.0009)
 D :1...2            ( 0.00    -0.0999)  ( 0.00     2.1162)

 CYCLE    2
 SCF Error: norm([F,P])=      0.751804890061, max([F,P])=      0.649804527420
 orbitals (Q,E):
 ---------------
 S :1...2            ( 2.00    -0.8008)  ( 0.00     0.1044)
 P :1...1            ( 0.00     0.1997)
 D :1...1            ( 0.00     0.6241)

 CYCLE    3
  SDIIS (wt  0.000): -0.0558  1.0558
 A-DIIS (wt  1.000):  0.0000  1.0000
  DIIS coefficients:  0.0000  1.0000
 SCF Error: norm([F,P])=      0.063750769678, max([F,P])=      0.040618979711
 orbitals (Q,E):
 ---------------
 S :1...2            ( 2.00    -0.9058)  ( 0.00     0.1046)
 P :1...1            ( 0.00     0.1943)
 D :1...1            ( 0.00     0.6190)

 CYCLE    4
  SDIIS (wt  0.925): -0.1339  1.1339
 A-DIIS (wt  0.075):  0.0000  1.0000
  DIIS coefficients: -0.1239  1.1239
 SCF Error: norm([F,P])=      0.010262122356, max([F,P])=      0.008392467565
 orbitals (Q,E):
 ---------------
 S :1...2            ( 2.00    -0.9177)  ( 0.00     0.1044)
 P :1...1            ( 0.00     0.1932)
 D :1...1            ( 0.00     0.6179)

 CYCLE    5
  SDIIS (wt  1.000):  0.0159 -0.1725  1.1566
  DIIS coefficients:  0.0159 -0.1725  1.1566
 SCF Error: norm([F,P])=      0.001021433877, max([F,P])=      0.000869587065
 orbitals (Q,E):
 ---------------
 S :1...2            ( 2.00    -0.9179)  ( 0.00     0.1044)
 P :1...1            ( 0.00     0.1931)
 D :1...1            ( 0.00     0.6178)

 CYCLE    6
  SDIIS (wt  1.000): -0.0028  0.0303 -0.2308  1.2033
  DIIS coefficients: -0.0028  0.0303 -0.2308  1.2033
 SCF Error: norm([F,P])=      0.000054076714, max([F,P])=      0.000037094673
 orbitals (Q,E):
 ---------------
 S :1...2            ( 2.00    -0.9180)  ( 0.00     0.1044)
 P :1...1            ( 0.00     0.1931)
 D :1...1            ( 0.00     0.6178)

 CYCLE    7
  SDIIS (wt  1.000):  0.0001 -0.0008 -0.0104  1.0110
  DIIS coefficients:  0.0001 -0.0008 -0.0104  1.0110
 SCF Error: norm([F,P])=      0.000001089799, max([F,P])=      0.000000797754
 orbitals (Q,E):
 ---------------
 S :1...2            ( 2.00    -0.9180)  ( 0.00     0.1044)
 P :1...1            ( 0.00     0.1931)
 D :1...1            ( 0.00     0.6178)

 CYCLE    8
  SDIIS (wt  1.000):  0.0000 -0.0002 -0.0131  1.0133
  DIIS coefficients:  0.0000 -0.0002 -0.0131  1.0133
 SCF Error: norm([F,P])=      0.000000021689, max([F,P])=      0.000000017961
 orbitals (Q,E):
 ---------------
 S :1...2            ( 2.00    -0.9180)  ( 0.00     0.1044)
 P :1...1            ( 0.00     0.1931)
 D :1...1            ( 0.00     0.6178)

 CYCLE    9
  SDIIS (wt  1.000): -0.0000  0.0002 -0.0101  1.0099
  DIIS coefficients: -0.0000  0.0002 -0.0101  1.0099
 SCF Error: norm([F,P])=      0.000000000263, max([F,P])=      0.000000000215
 orbitals (Q,E):
 ---------------
 S :1...2            ( 2.00    -0.9180)  ( 0.00     0.1044)
 P :1...1            ( 0.00     0.1931)
 D :1...1            ( 0.00     0.6178)

 SCF CONVERGED

 CYCLE   10
1
 ***************************************************************************************************



                                                *******************
                                                *  R E S U L T S  *
                                                *******************
  
  
 Hartree-Fock exchange energy:   -1.02573117444052     
 *** Setting up for NEW gradients in Focky
 *** Using FIT density in Focky

 Orbital Energies, per Irrep and Spin:
 ======================================
                        Occup              E (au)              E (eV)       Diff (eV) with prev. cycle
                        -----      --------------------        ------       --------------------------
 S
               1        2.000     -0.91796835757671E+00       -24.979              -4.29E-11
               2        0.000      0.10437772350161E+00         2.840
               3        0.000      0.82792480127810E+00        22.529
               4        0.000      0.49041355937046E+01       133.448
               5        0.000      0.40753393523647E+02      1108.956
 P
               1        0.000      0.19306284833212E+00         5.254
               2        0.000      0.12009152205868E+01        32.679
 D
               1        0.000      0.61780017980955E+00        16.811
               2        0.000      0.35934485136814E+01        97.783
  
 HOMO :        1 S                -0.91796835757671E+00
 LUMO :        2 S                 0.10437772350161E+00
  


 Orbital Energies, all Irreps
 ========================================

 Irrep        no.  (spin)   Occup              E (au)                E (eV)
 ---------------------------------------------------------------------------
 S             1             2.00       -0.91796835757671E+00       -24.9792
 S             2             0.00        0.10437772350161E+00         2.8403
 P             1             0.00        0.19306284833212E+00         5.2535
 D             1             0.00        0.61780017980955E+00        16.8112
 S             3             0.00        0.82792480127810E+00        22.5290
 P             2             0.00        0.12009152205868E+01        32.6786
 D             2             0.00        0.35934485136814E+01        97.7827
 S             4             0.00        0.49041355937046E+01       133.4483
 S             5             0.00        0.40753393523647E+02      1108.9563


 All Electron Calculation, thus no Orbital Energies of the Core Orbitals are calculated



 =======================================
 M U L L I K E N   P O P U L A T I O N S
 =======================================
  
 The survey below gives for each atom:
 a) the total charge (Z minus electrons)
 b) the net spin polarization (nr of electrons spin-A minus spin-B)
 c) for each spin the atomic electron valence density (integrated) per L-value.

 Atom              Charge    Spin density          S         P         D         F
 ----              ------    ------------       ------    ------    ------    ------
 1 He              0.0000                       2.0000    0.0000    0.0000    0.0000

 Populations of individual BAS functions
 ----------------------------------------
 1 He           0.0004  0.1850  1.2213  0.6201 -0.0268  0.0000  0.0000  0.0000  0.0000  0.0000
                0.0000  0.0000  0.0000  0.0000  0.0000  0.0000  0.0000  0.0000  0.0000  0.0000
                0.0000  0.0000  0.0000

 Gross Charges per Atom (Z minus electrons)
 ==========================================
             0.0000
 Net Total:  0.00000000



 =======================================================================
 Electrostatic potential at the Nuclei due to electrons and other nuclei
 =======================================================================
  
         Atom                  Potential
         ----                  ---------
     1)   He                  3.37451238
 
 
 ========================
 No memory problems found
 ========================
 
 Maximum number of active allocate calls:         370
 
 *******************************************************************************

                             A D F   E X I T
 NORMAL TERMINATION



 =================
 Timing Statistics
 =================
  
 Total Used :                     CPU=        0.80      System=        0.04     Elapsed=        1.24

 Calls  Section                     ( Mean, Percentage )
 ---------------------------------------------------------------------------------------------------
     3  ><      ................      0.00    0.51             0.00    0.01             0.00    0.33
     1  INIT    ................      0.05    6.77             0.00    6.55             0.45   35.99
     1  GEOMET  ................      0.04    4.54             0.01   31.06             0.06    4.53
     1  INPUTA  ................      0.01    0.70             0.00    0.00             0.01    0.45
     1  MAINSY  ................      0.01    1.42             0.00    9.64             0.01    1.21
     1  SYMFIT  ................      0.00    0.17             0.00    0.75             0.00    0.13
     1  CORORT  ................      0.00    0.12             0.00    0.54             0.00    0.09
     1  SYMORB  ................      0.00    0.14             0.00    0.00             0.00    0.09
     1  FITINT  ................      0.01    1.10             0.00    8.39             0.01    0.97
     1  CLSMAT  ................      0.00    0.15             0.00    2.04             0.00    0.16
     1  ORTHON  ................      0.01    0.96             0.00    0.46             0.01    0.63
     1  GENPT   ................      0.02    2.47             0.00    0.00             0.02    1.61
     1  PTBAS   ................      0.01    0.68             0.00    0.00             0.01    0.44
    10  FOCKY   ................      0.06   68.55             0.00   29.48             0.06   45.41
    10  FOCKTR  ................      0.00    1.16             0.00    0.15             0.00    0.76
    10  SDIIS   ................      0.00    4.13             0.00    0.45             0.00    2.70
     1  COREPS  ................      0.02    2.93             0.00    0.00             0.02    1.90
     1  POPAN   ................      0.01    1.04             0.00    0.00             0.01    0.67
     1  DEBYE   ................      0.00    0.28             0.00    0.00             0.00    0.18
     1  EXIT PROCEDURE .........      0.02    2.19             0.00   10.46             0.02    1.74


 Currently Open Files (EXIT00)
 ====================

 Unit    Access Format  Status   Type       Ident (file)
 -------------------------------------------------------
   3      SEQ    FORM   TRANSP  NORMAL      LOGFILE
                                          ( logfile )


 Buffered I/O statistics
 =======================
 Memory available:                     67108864
 Number of records fitting in memory:     16131
 Input :   0.1% of                        24387  *4k bytes
 Output:  14.6% of                         1206  *4k bytes
 Records from serial files evicted:           0
                    others evicted:           0
 Hash table lookups:      49892 with          0 conflicts (  0.00%)

 ***************************************************************************************************
 (LOGFILE)
 <Mar23-2019> <13:46:45>  ADF 2018  RunTime: Mar23-2019 13:46:45  Nodes: 1  Procs: 1
 <Mar23-2019> <13:46:45>  Helium (QZ, all electron, 5S 2P 2D)
 <Mar23-2019> <13:46:45>  RunType   : CREATE
 <Mar23-2019> <13:46:45>  Net Charge: 0 (Nuclei minus Electrons)
 <Mar23-2019> <13:46:45>  Symmetry  : ATOM
  Coordinates
    Atom         X           Y           Z   (Angstrom)
    1.He        0.000000    0.000000    0.000000
 <Mar23-2019> <13:46:45>  >>>> CORORT
 <Mar23-2019> <13:46:45>  >>>> FITINT
 <Mar23-2019> <13:46:45>  >>>> CLSMAT
 <Mar23-2019> <13:46:45>  >>>> ORTHON
 <Mar23-2019> <13:46:45>  >>>> GENPT
 <Mar23-2019> <13:46:45>  Block Length=  68
 <Mar23-2019> <13:46:45>  >>>> PTBAS
 <Mar23-2019> <13:46:45>  >>>> CYCLE
 <Mar23-2019> <13:46:45>  CalcFitR12Fit
 <Mar23-2019> <13:46:45>  CalcFitCoeff
 <Mar23-2019> <13:46:45>              |Error|         MaxErr       Wt(A-DIIS)
 <Mar23-2019> <13:46:45>      1      0.00000000      0.00000000
 <Mar23-2019> <13:46:45>      2      0.75180489      0.64980453
 <Mar23-2019> <13:46:45>      3      0.06375077      0.04061898    100.0
 <Mar23-2019> <13:46:45>      4      0.01026212      0.00839247      7.5
 <Mar23-2019> <13:46:45>      5      0.00102143      0.00086959      0.0
 <Mar23-2019> <13:46:45>      6      0.00005408      0.00003709      0.0
 <Mar23-2019> <13:46:45>      7      0.00000109      0.00000080      0.0
 <Mar23-2019> <13:46:45>      8      0.00000002      0.00000002      0.0
 <Mar23-2019> <13:46:45>      9      0.00000000      0.00000000      0.0
 <Mar23-2019> <13:46:45>  SCF converged
 <Mar23-2019> <13:46:45>     10      0.00000000      0.00000000      0.0
 <Mar23-2019> <13:46:45>  >>>> POPAN
 <Mar23-2019> <13:46:45>  >>>> DEBYE
 <Mar23-2019> <13:46:45>  NORMAL TERMINATION
 <Mar23-2019> <13:46:45>  END


 Parallel Execution: Process Information
 ==============================================================================
 Rank   Node Name                              NodeID   MyNodeRank  NodeMaster
    0   vladimir-Kubuntu-16                       0          0          0
    1   vladimir-Kubuntu-16                       0          1         -1
    2   vladimir-Kubuntu-16                       0          2         -1
    3   vladimir-Kubuntu-16                       0          3         -1
 ==============================================================================


May use up to 7611MB of RAM as shared memory on node 0
 
Title He

ATOMS
 He        0.0000000000 0.0000000000 0.0000000000
END

CHARGE 0 0

XC
  HartreeFock
END

EPRINT
  SFO NOEIG NOOVL NOORBPOP
  SCF NOPOP
END

NOPRINT BAS FUNCTIONS

TOTALENERGY
NOTOTEN

Fragments
He t21.He
End

 *******************************************************************************
 *                                                                             *
 *  -------------------------------------                                      *
 *   Amsterdam Density Functional  (ADF)         2018                          *
 *  -------------------------------------                                      *
 *                                               r70630 2018-11-24             *
 *                                                                             *
 *                                                                             *
 *                              =================                              *
 *                              |               |                              *
 *                              |     A D F     |                              *
 *                              |               |                              *
 *                              =================                              *
 *                                                                             *
 *                                                                             *
 *   Online information and documentation:  https://www.scm.com/support/       *
 *   E-mail:  support@scm.com   info@scm.com                                   *
 *                                                                             *
 *   Scientific publications using ADF results must be properly referenced     *
 *   See the User Manuals (or the web site) for recommended citations          *
 *   The terms and conditions of the End User License Agreement apply to       *
 *   the use of ADF, https://www.scm.com/license-terms/                        *
 *                                                                             *
 **********************  x86_64_linux_intel / intelmpi  ************************
 
 Licensed to: Mr. Vladimir Konjkov / Florida Institute of Technology / Melbourne / Florida / USA
 SCM User ID: u21173
  
 ADF 2018  RunTime: Mar23-2019 13:46:46  Nodes: 1  Procs: 4

 Temporary files are created in /tmp/kid_0.1084068342


Communication costs MPI_COMM_WORLD:      0.471 usec per message,   0.0048 usec per 8-byte item
Communication costs for intra-node:      0.398 usec per message,   0.0049 usec per 8-byte item

 He



 ===========================
 A T T A C H E D   F I L E S
 ===========================
  



 ===============================
 M O D E L   P A R A M E T E R S
 ===============================
  
 DENSITY FUNCTIONAL POTENTIAL (scf)
    Hybrid:                            HARTREEFOCK                             == Not Default ==

 SPIN  (restricted / unrestr.)
    Molecule:                          Restricted                               
    Fragments:                         Restricted                               

 OTHER ASPECTS
    Relativistic Corrections:          ---                                      

    Nuclear Charge Density Model:      Point Charge Nuclei                      
    Core Treatment:                    Frozen Orbital(s)                        

    Hyperfine or Zeeman Interaction:   ---                                      


 Fragment File(s)
 ----------------
 He:
         file : t21.He
         jobid: ADF 2018  RunTime: Mar23-2019 13:46:45  Nodes: 1  Procs: 1
         title: Helium (QZ, all electron, 5S 2P 2D)



                                        ************************************
                                        *  R U N   T Y P E : SINGLE POINT  *
                                        ************************************
  



 ===============
 G E O M E T R Y  ***  Single Atom  ***
 ===============
  

 ATOMS
 =====                            X Y Z                    CHARGE
                                (Angstrom)             Nucl     +Core       At.Mass
                       --------------------------    ----------------       -------
    1  He              0.0000    0.0000    0.0000      2.00      2.00        4.0026


 FRAGMENTS
 =========                                     Atoms in this Fragment     Cart. coord.s (Angstrom)
                                               -------------------------------------------------------
    1  He                                                1  He           0.0000    0.0000    0.0000



 =====================================
 S Y M M E T R Y ,   E L E C T R O N S
 =====================================
  
 Symmetry: ATOM

 Irreducible Representations, including subspecies
 -------------------------------------------------
 S
 P:x  P:y  P:z
 D:z2  D:x2-y2  D:xy  D:xz  D:yz
 F:z3  F:z  F:xyz  F:z2x  F:z2y  F:x  F:y


 Configuration of Valence Electrons
 ==================================
 ( determined in the SCF procedure )

 Total:   2

 Net Charge: 0 (Nuclei minus Electrons)

 Aufbau principle for MO occupations will be applied through SCF cycle no.     150
 Thereafter, the program will assign electrons to MOs that are spatially
 similar to the occupied MOs in a "reference" cycle ("KeepOrbitals").
 The reference cycle is always the PREVIOUS cycle: it will evolve with
 the SCF procedure.



 =======
 S F O s  ***  (Symmetrized Fragment Orbitals)  ***
 =======
  
 SFOs are linear combinations of (valence) Fragment Orbitals (FOs), such that the SFOs transform as the
 irreducible representations of the (molecular) symmetry group. Each SFO is therefore characterized by
 an irrep of the molecule and by a few (or only one) generating FOs.
 The SFOs constitute a symmetry-adapted basis for the Fock matrix. The MO eigenvector coefficients in
 this basis provide a direct interpretation of the MOs in terms of Frontier Orbital Theory.

 The SFOs are combined with auxiliary Core Functions (CFs) to ensure orthogonalization on the (frozen)
 Core Orbitals (COs). The Core-orthogonalized SFOs (CSFOs) constitute the true Fock basis.

 The FOs, and hence also the (C)SFOs are combinations of the elementary basis functions (BAS). The basis
 functions that participate in the description of the SFOs depend on the irrep. The indices of the
 involved functions are printed below for each irrep.
 (The complete list of primitive basis functions is printed in another section)

 Total nr. of (C)SFOs (summation over all irreps) :    21

 NOTE: a (C)SFO that is defined as a combination of more than one FO is usually NOT normalized.



                                       === S ===
 Nr. of SFOs :    5
 Cartesian basis functions that participate in this irrep (total number =     5) :
      1     2     3     4     5

    SFO  (index         Fragment          Generating    Expansion in Fragment Orbitals
  indx  incl.CFs)   Occup   Orb.Energy   FragmentType  Coeff.   Orbital     on Fragment
 --------------------------------------------------------------------------------------
     1       1      2.000      -0.918 au  He            1.00      1 S               1
                        (     -24.979 eV)
     2       2       --         0.104 au  He            1.00      2 S               1
                        (       2.840 eV)
     3       3       --         0.828 au  He            1.00      3 S               1
                        (      22.529 eV)
     4       4       --         4.904 au  He            1.00      4 S               1
                        (     133.448 eV)
     5       5       --        40.753 au  He            1.00      5 S               1
                        (    1108.956 eV)



                                       === P:x ===
 Nr. of SFOs :    2
 Cartesian basis functions that participate in this irrep (total number =     2) :
      6     9

    SFO  (index         Fragment          Generating    Expansion in Fragment Orbitals
  indx  incl.CFs)   Occup   Orb.Energy   FragmentType  Coeff.   Orbital     on Fragment
 --------------------------------------------------------------------------------------
     1       1       --         0.193 au  He            1.00      1 P:x             1
                        (       5.254 eV)
     2       2       --         1.201 au  He            1.00      2 P:x             1
                        (      32.679 eV)



                                       === P:y ===
 Nr. of SFOs :    2
 Cartesian basis functions that participate in this irrep (total number =     2) :
      7    10

    SFO  (index         Fragment          Generating    Expansion in Fragment Orbitals
  indx  incl.CFs)   Occup   Orb.Energy   FragmentType  Coeff.   Orbital     on Fragment
 --------------------------------------------------------------------------------------
     1       1       --         0.193 au  He            1.00      1 P:y             1
                        (       5.254 eV)
     2       2       --         1.201 au  He            1.00      2 P:y             1
                        (      32.679 eV)



                                       === P:z ===
 Nr. of SFOs :    2
 Cartesian basis functions that participate in this irrep (total number =     2) :
      8    11

    SFO  (index         Fragment          Generating    Expansion in Fragment Orbitals
  indx  incl.CFs)   Occup   Orb.Energy   FragmentType  Coeff.   Orbital     on Fragment
 --------------------------------------------------------------------------------------
     1       1       --         0.193 au  He            1.00      1 P:z             1
                        (       5.254 eV)
     2       2       --         1.201 au  He            1.00      2 P:z             1
                        (      32.679 eV)



                                       === D:z2 ===
 Nr. of SFOs :    2
 Cartesian basis functions that participate in this irrep (total number =     6) :
     12    15    17    18    21    23

    SFO  (index         Fragment          Generating    Expansion in Fragment Orbitals
  indx  incl.CFs)   Occup   Orb.Energy   FragmentType  Coeff.   Orbital     on Fragment
 --------------------------------------------------------------------------------------
     1       1       --         0.618 au  He            1.00      1 D:z2            1
                        (      16.811 eV)
     2       2       --         3.593 au  He            1.00      2 D:z2            1
                        (      97.783 eV)



                                       === D:x2-y2 ===
 Nr. of SFOs :    2
 Cartesian basis functions that participate in this irrep (total number =     4) :
     12    15    18    21

    SFO  (index         Fragment          Generating    Expansion in Fragment Orbitals
  indx  incl.CFs)   Occup   Orb.Energy   FragmentType  Coeff.   Orbital     on Fragment
 --------------------------------------------------------------------------------------
     1       1       --         0.618 au  He            1.00      1 D:x2-y2         1
                        (      16.811 eV)
     2       2       --         3.593 au  He            1.00      2 D:x2-y2         1
                        (      97.783 eV)



                                       === D:xy ===
 Nr. of SFOs :    2
 Cartesian basis functions that participate in this irrep (total number =     2) :
     13    19

    SFO  (index         Fragment          Generating    Expansion in Fragment Orbitals
  indx  incl.CFs)   Occup   Orb.Energy   FragmentType  Coeff.   Orbital     on Fragment
 --------------------------------------------------------------------------------------
     1       1       --         0.618 au  He            1.00      1 D:xy            1
                        (      16.811 eV)
     2       2       --         3.593 au  He            1.00      2 D:xy            1
                        (      97.783 eV)



                                       === D:xz ===
 Nr. of SFOs :    2
 Cartesian basis functions that participate in this irrep (total number =     2) :
     14    20

    SFO  (index         Fragment          Generating    Expansion in Fragment Orbitals
  indx  incl.CFs)   Occup   Orb.Energy   FragmentType  Coeff.   Orbital     on Fragment
 --------------------------------------------------------------------------------------
     1       1       --         0.618 au  He            1.00      1 D:xz            1
                        (      16.811 eV)
     2       2       --         3.593 au  He            1.00      2 D:xz            1
                        (      97.783 eV)



                                       === D:yz ===
 Nr. of SFOs :    2
 Cartesian basis functions that participate in this irrep (total number =     2) :
     16    22

    SFO  (index         Fragment          Generating    Expansion in Fragment Orbitals
  indx  incl.CFs)   Occup   Orb.Energy   FragmentType  Coeff.   Orbital     on Fragment
 --------------------------------------------------------------------------------------
     1       1       --         0.618 au  He            1.00      1 D:yz            1
                        (      16.811 eV)
     2       2       --         3.593 au  He            1.00      2 D:yz            1
                        (      97.783 eV)

 Total number of charge fitting functions (nprimf)       106
 Total number of Cartesian basis functions (naos)         23
 Total number of Cartesian core functions  (ncos)          0

1
 ***************************************************************************************************



                                              ***********************
                                              *  T E C H N I C A L  *
                                              ***********************
  



 =============================================================
 P A R A L L E L I Z A T I O N  and  V E C T O R I Z A T I O N
 =============================================================
  
 Nr of parallel processes:                                4
 Maximum vector length in NumInt loops:                 128

 IO buffersize (Mb):                                     64.000000



 =====================
 S C F   U P D A T E S
 =====================
  
 Max. nr. of cycles:                               300
 Convergence criterion:                              0.0000010000
   secondary criterion:                              0.0010000000

 Mix parameter (when DIIS does not apply):           0.2000000000
 Mixed ADIIS+DIIS will be used
    Max number of expansion vectors:                10
    Pure ADIIS when Max([F,P]) is above              0.1000000000
    Pure DIIS when Max([F,P]) is below               0.0010000000
 Automatic ElectronSmearing (in case of problematic SCF convergence) disabled



 =================
 P R E C I S I O N  ***  (General: NumInt, NeglectFunctionTails, ...)  ***
 =================
  

 NumInt:           Target precision:                 4.0000000000
 -------           Initial precision:                4.0000000000
                   Min. precision (optimization):    4.0000000000

 Neglect Functions:          Basis functions:        0.1000000000E-05
 ------------------          Fit functions:          0.1000000000E-05



 ===========================
 L I N E A R   S C A L I N G
 ===========================
  

 Cut-off radii density fit:                        0.1000000000E-07
 Overlap cut-off criterion AO matrix elements:     0.1000000000E-05
 Cut-offs for Coulomb potential and fitted density:0.1000000000E-07
 Cut-off criterion for Coulomb multipole terms:    0.1000000000E-07
 Progressive Convergence parameter:                 0.000000000    
1
 ***************************************************************************************************



                                            ***************************
                                            *  C O M P U T A T I O N  *
                                            ***************************
  

 Number of elements of the density matrix on this node (used, total):       276       276



 ===========================================
 Numerical Integration : Fuzzy Cells (Becke)
 ===========================================
  
 Becke grid quality: NORMAL         
  
 Lebedev angular grid order:             min:  11 max:  23
 Nr. of radial points:                   min:  49 max:  49

 Total nr. of points:         49
 Nr. of blocks:                1
 Block length:                49
 Nr. of dummy points:          0


 Test of Precision of the Numerical Integration Grid
 ===================================================

 Integral of the Total Core Density:                   0.00000000000000



 ========================
 Density Fitting (zlmFit)
 ========================
  
 ZlmFit Fit Quality: NORMAL         
  
 Max L-expansion:                        min:   6 max:   6
 Nr. of radial interpolation points:     min:  45 max:  45



 ======================
 RI Hartree-Fock Scheme
 ======================
  
 Fit Set Quality     : NORMAL
 Integration Quality : NORMAL
 Threshold Quality   : NORMAL
 Response Quality    : DEFAULT
 Is Range Separated  :  F
 
 RIHartreeFock Dependency: number of modified vectors:           0



 =====
 S C F  ***  ScaSCF  ***
 =====
  
 Initial density matrix is calculated as sum of fragments

 CYCLE    1
 Orbital Data from active fragment used
 SCF Error: norm([F,P])=      0.000068654931, max([F,P])=      0.000057699110
 orbitals (Q,E):
 ---------------
 S :1...5            ( 2.00    -0.9182)  ( 0.00     0.1043)  ( 0.00     0.8277)  ( 0.00     4.9039)
                     ( 0.00    40.7531)
 P :1...2            ( 0.00     0.1929)  ( 0.00     1.2007)
 D :1...2            ( 0.00     0.6177)  ( 0.00     3.5932)

 CYCLE    2
 SCF Error: norm([F,P])=      0.000011083820, max([F,P])=      0.000007032524
 orbitals (Q,E):
 ---------------
 S :1...2            ( 2.00    -0.9182)  ( 0.00     0.1043)
 P :1...1            ( 0.00     0.1929)
 D :1...1            ( 0.00     0.6177)

 CYCLE    3
  SDIIS (wt  0.000): -0.2364  1.2364
 A-DIIS (wt  1.000):  0.0000  1.0000
  DIIS coefficients:  0.0000  1.0000
 SCF Error: norm([F,P])=      0.000002230847, max([F,P])=      0.000001442548
 orbitals (Q,E):
 ---------------
 S :1...2            ( 2.00    -0.9182)  ( 0.00     0.1043)
 P :1...1            ( 0.00     0.1929)
 D :1...1            ( 0.00     0.6177)

 CYCLE    4
  SDIIS (wt  1.000): -0.2496  1.2496
  DIIS coefficients: -0.2496  1.2496
 SCF Error: norm([F,P])=      0.000000452164, max([F,P])=      0.000000320194
 orbitals (Q,E):
 ---------------
 S :1...2            ( 2.00    -0.9182)  ( 0.00     0.1043)
 P :1...1            ( 0.00     0.1929)
 D :1...1            ( 0.00     0.6177)

 SCF CONVERGED

 CYCLE    5
1
 ***************************************************************************************************



                                                *******************
                                                *  R E S U L T S  *
                                                *******************
  
  
 Hartree-Fock exchange energy:   -1.02575853593984     
 *** Setting up for NEW gradients in Focky
 *** Using FIT density in Focky

 Orbital Energies, per Irrep and Spin:
 ======================================
                        Occup              E (au)              E (eV)       Diff (eV) with prev. cycle
                        -----      --------------------        ------       --------------------------
 S
               1        2.000     -0.91821999335287E+00       -24.986              -1.49E-07
               2        0.000      0.10427487949832E+00         2.837
               3        0.000      0.82774579972228E+00        22.524
               4        0.000      0.49039049564487E+01       133.442
               5        0.000      0.40753158409381E+02      1108.950
 P
               1        0.000      0.19294149022597E+00         5.250
               2        0.000      0.12007075236377E+01        32.673
 D
               1        0.000      0.61765740482599E+00        16.807
               2        0.000      0.35932252850709E+01        97.777
  
 HOMO :        1 S                -0.91821999335287E+00
 LUMO :        2 S                 0.10427487949832E+00
  


 Orbital Energies, all Irreps
 ========================================

 Irrep        no.  (spin)   Occup              E (au)                E (eV)
 ---------------------------------------------------------------------------
 S             1             2.00       -0.91821999335287E+00       -24.9860
 S             2             0.00        0.10427487949832E+00         2.8375
 P             1             0.00        0.19294149022597E+00         5.2502
 D             1             0.00        0.61765740482599E+00        16.8073
 S             3             0.00        0.82774579972228E+00        22.5241
 P             2             0.00        0.12007075236377E+01        32.6729
 D             2             0.00        0.35932252850709E+01        97.7766
 S             4             0.00        0.49039049564487E+01       133.4420
 S             5             0.00        0.40753158409381E+02      1108.9499


 All Electron Calculation, thus no Orbital Energies of the Core Orbitals are calculated



 =======================
 T O T A L   E N E R G Y  ***  (contributions)  ***
 =======================
  

*** Note ***

The requirements to the integration accuracy are somewhat higher than for bond energies.
One can expect an accuracy of roughly (accint-2) decimal places, where accint is the
general integration accuracy parameter.
The Coulomb energy is the sum of the Hartree energy (electron-electron Coulomb interaction)
and the nuclear-electron attraction energy. It includes the correction for the first-order
fit error in the Hartree energy.
The potential energy is the sum of the nuclear repulsion energy, the Coulomb energy,
and the exchange-correlation energy.

Kinetic energy           =            2.861741930069

Nuclear repulsion energy =            0.000000000000
Coulomb energy           =           -4.697653712337
XC energy                =           -1.025758535940
Total potential energy   =           -5.723412248277

----------------------------------------------------
Total energy             =           -2.861670318207
Virial theorem           =            1.999974976129
----------------------------------------------------

 Gross Charges per Atom (Z minus electrons)
 ==========================================
             0.0000
 Net Total:  0.00000000



 =================================================================
 M U L T I P O L E   D E R I V E D   C H A R G E   A N A L Y S I S
 =================================================================

 This charge analysis uses the atomic multipoles (obtained from the fitted density) up to some level X,
 and reconstructs these multipoles exactly (up to level X) by distributing charges over all atoms.
 This is achieved by using Lagrange multipliers and a weight function to keep the multipoles local.

 Dummy atoms can be included (by setting INCDUM in MDC-block to 1) to obtain a fractional charge.
 This is generally useful and necessary only for small symmetrical molecules, when there are not
 enough degrees of freedom to reconstruct the multipoles.

 Since the atomic multipoles are reconstructed up to level X,
 the molecular multipoles are represented also up to level X.
 The recommended level is to reconstruct up to quadrupole : -> MDC-q charges.

 See: M. Swart, P.Th. van Duijnen, J.G. Snijders, J.Comput.Chem., (2001), p. 79-88.

 ------------------------------------------------------------- 
 Atomic electronic multipole moments from SCF equations (a.u.)
 ------------------------------------------------------------- 

   atom        charge        dip-x     dip-y     dip-z      quad-xx   quad-xy   quad-xz   quad-yy   quad-yz   quad-zz
 --------------------------------------------------------------------------------------------------------------------
    1 He     0.000000    -0.000000  0.000000  0.000000    -0.000000  0.000000  0.000000 -0.000000  0.000000  0.000000

 --------------------------------------- 
 Multipole derived atomic charges (a.u.)
 --------------------------------------- 

 The MDC-m charges are just the Monopole terms in the multipole expansion, while for the MDC-d charges
 also the Dipoles are reconstructed. The usually preferred charges are the MDC-q charges.
 These reconstruct the Monopoles, Dipoles and Quadrupoles (both atomic AND molecular).

        Atom    Level:     MDC-m        MDC-d        MDC-q
 ---------------------------------------------------------
     1     He           0.000000     0.000000     0.000000

 ------------------------------------------------ 
 Average absolute deviations in atomic multipoles
 ------------------------------------------------ 

 Stated here are the average differences between the atomic multipoles
 and the reconstructed atomic multipoles (from the distributed charges).
 If these values are not zero, this means there are not enough degrees of freedom,
 to be able to reconstruct the atomic multipoles. (This usually happens only
 for small and/or highly symmetric molecules). If this is the case, one could add
 dummy atoms as extra point charges (and setting INCDUM in MDC-block to 1).

 Level:                                 MDC-d        MDC-q
 ---------------------------------------------------------
 Charge   (a.u.)                       0.0000       0.0000
 Dipole   (Debye)                      0.0000       0.0000
 Quad.    (a.u.)                       0.0000       0.0000

 --------------------------------------- 
 Represented molecular multipole moments
 --------------------------------------- 

 Given here are the Molecular multipole moments from the atomic charges, and from the Fit Density.
 Note that the atomic charges represent the latter, NOT the ones from the Exact density.

            Q (a.u.)             Dipole moment (Debye)                                          Quadrupole moment (a.u.)
                                 x         y         z              xx        xy        xz        yy        yz        zz
------------------------------------------------------------------------------------------------------------------------
MDC-m         0.0000        0.0000    0.0000    0.0000          0.0000    0.0000    0.0000    0.0000    0.0000    0.0000
MDC-d         0.0000        0.0000    0.0000    0.0000          0.0000    0.0000    0.0000    0.0000    0.0000    0.0000
MDC-q         0.0000        0.0000    0.0000    0.0000          0.0000    0.0000    0.0000    0.0000    0.0000    0.0000
 
Fit.Dens.     0.0000       -0.0000    0.0000    0.0000         -0.0000    0.0000    0.0000   -0.0000    0.0000    0.0000



 =============
 Dipole Moment  ***  (Debye)  ***
 =============
  
 Vector   :         0.00000000      0.00000000      0.00000000
 Magnitude:         0.00000000

 This molecular dipole moment is calculated with analytic integration



 =========================================
 Quadrupole Moment (Buckingham convention)  ***  (a.u.)  ***
 =========================================
  
      quad-xx        quad-xy        quad-xz        quad-yy        quad-yz        quad-zz
      0.00000000     0.00000000     0.00000000     0.00000000     0.00000000     0.00000000

 This molecular quadrupole moment is calculated with analytic integration



 =======================================================================
 Electrostatic potential at the Nuclei due to electrons and other nuclei
 =======================================================================
  
         Atom                  Potential
         ----                  ---------
     1)   He                  3.37427990
 
 
 ========================
 No memory problems found
 ========================
 
 Maximum number of active allocate calls:         513
 
 *******************************************************************************

                             A D F   E X I T
 NORMAL TERMINATION



 =================
 Timing Statistics
 =================
  
 Total Used :                     CPU=        1.54      System=        0.09     Elapsed=        2.41

 Calls  Section                     ( Mean, Percentage )
 ---------------------------------------------------------------------------------------------------
     3  ><      ................      0.00    0.27             0.00    0.01             0.00    0.20
     1  INIT    ................      0.50   32.19             0.00    0.00             0.96   39.88
     1  GEOMET  ................      0.08    5.09             0.02   23.06             0.10    4.22
     1  FRAGM   ................      0.02    1.05             0.00    0.00             0.02    0.81
     1  INPUTA  ................      0.00    0.17             0.00    0.00             0.00    0.11
     1  ATDEN   ................      0.00    0.01             0.00    2.78             0.00    0.11
     1  MAINSY  ................      0.03    2.02             0.01    5.68             0.04    1.58
     1  SYMFIT  ................      0.00    0.00             0.00    1.97             0.00    0.08
     1  CORORT  ................      0.00    0.00             0.00    1.59             0.00    0.06
     1  SYMORB  ................      0.00    0.14             0.00    0.62             0.00    0.11
     1  FITINT  ................      0.02    1.13             0.00    0.12             0.02    0.74
     1  CLSMAT  ................      0.00    0.16             0.00    0.00             0.00    0.11
     1  ORTHON  ................      0.01    0.77             0.00    0.00             0.01    0.49
     1  GENPT   ................      0.02    1.34             0.00    2.76             0.02    0.98
     1  PTBAS   ................      0.04    2.89             0.01    5.85             0.05    2.09
     5  FOCKY   ................      0.10   33.20             0.01   32.55             0.15   30.84
     5  FOCKTR  ................      0.02    8.00             0.00    5.57             0.04    7.84
     5  SDIIS   ................      0.01    1.75             0.00    0.78             0.01    1.83
     1  COREPS  ................      0.03    2.14             0.00    4.11             0.04    1.55
     1  POPAN   ................      0.09    5.53             0.00    4.74             0.11    4.70
     1  DEBYE   ................      0.01    0.56             0.00    0.00             0.01    0.36
     1  EXIT PROCEDURE .........      0.02    1.56             0.01    7.82             0.03    1.31


 Currently Open Files (EXIT00)
 ====================

 Unit    Access Format  Status   Type       Ident (file)
 -------------------------------------------------------
   3      SEQ    FORM   TRANSP  NORMAL      LOGFILE
                                          ( logfile )


 Buffered I/O statistics
 =======================
 Memory available:                     67108864
 Number of records fitting in memory:     16131
 Input :   0.3% of                        20432  *4k bytes
 Output:  19.9% of                         1038  *4k bytes
 Records from serial files evicted:           0
                    others evicted:           0
 Hash table lookups:      41849 with          0 conflicts (  0.00%)

 ***************************************************************************************************
 (LOGFILE)
 <Mar23-2019> <13:46:45>  ADF 2018  RunTime: Mar23-2019 13:46:45  Nodes: 1  Procs: 1
 <Mar23-2019> <13:46:45>  Helium (QZ, all electron, 5S 2P 2D)
 <Mar23-2019> <13:46:45>  RunType   : CREATE
 <Mar23-2019> <13:46:45>  Net Charge: 0 (Nuclei minus Electrons)
 <Mar23-2019> <13:46:45>  Symmetry  : ATOM
  Coordinates
    Atom         X           Y           Z   (Angstrom)
    1.He        0.000000    0.000000    0.000000
 <Mar23-2019> <13:46:45>  >>>> CORORT
 <Mar23-2019> <13:46:45>  >>>> FITINT
 <Mar23-2019> <13:46:45>  >>>> CLSMAT
 <Mar23-2019> <13:46:45>  >>>> ORTHON
 <Mar23-2019> <13:46:45>  >>>> GENPT
 <Mar23-2019> <13:46:45>  Block Length=  68
 <Mar23-2019> <13:46:45>  >>>> PTBAS
 <Mar23-2019> <13:46:45>  >>>> CYCLE
 <Mar23-2019> <13:46:45>  CalcFitR12Fit
 <Mar23-2019> <13:46:45>  CalcFitCoeff
 <Mar23-2019> <13:46:45>              |Error|         MaxErr       Wt(A-DIIS)
 <Mar23-2019> <13:46:45>      1      0.00000000      0.00000000
 <Mar23-2019> <13:46:45>      2      0.75180489      0.64980453
 <Mar23-2019> <13:46:45>      3      0.06375077      0.04061898    100.0
 <Mar23-2019> <13:46:45>      4      0.01026212      0.00839247      7.5
 <Mar23-2019> <13:46:45>      5      0.00102143      0.00086959      0.0
 <Mar23-2019> <13:46:45>      6      0.00005408      0.00003709      0.0
 <Mar23-2019> <13:46:45>      7      0.00000109      0.00000080      0.0
 <Mar23-2019> <13:46:45>      8      0.00000002      0.00000002      0.0
 <Mar23-2019> <13:46:45>      9      0.00000000      0.00000000      0.0
 <Mar23-2019> <13:46:45>  SCF converged
 <Mar23-2019> <13:46:45>     10      0.00000000      0.00000000      0.0
 <Mar23-2019> <13:46:45>  >>>> POPAN
 <Mar23-2019> <13:46:45>  >>>> DEBYE
 <Mar23-2019> <13:46:45>  NORMAL TERMINATION
 <Mar23-2019> <13:46:45>  END
 <Mar23-2019> <13:46:46>  ADF 2018  RunTime: Mar23-2019 13:46:46  Nodes: 1  Procs: 4
 <Mar23-2019> <13:46:47>  He
 <Mar23-2019> <13:46:47>  RunType   : SINGLE POINT
 <Mar23-2019> <13:46:47>  Net Charge: 0 (Nuclei minus Electrons)
 <Mar23-2019> <13:46:47>  Symmetry  : ATOM
 <Mar23-2019> <13:46:47>  >>>> FRAGM
  Coordinates
    Atom         X           Y           Z   (Angstrom)
    1.He        0.000000    0.000000    0.000000
 <Mar23-2019> <13:46:47>  >>>> CORORT
 <Mar23-2019> <13:46:47>  >>>> FITINT
 <Mar23-2019> <13:46:47>  >>>> CLSMAT
 <Mar23-2019> <13:46:47>  >>>> ORTHON
 <Mar23-2019> <13:46:47>  >>>> GENPT
 <Mar23-2019> <13:46:47>  Block Length=  49
 <Mar23-2019> <13:46:47>  >>>> PTBAS
 <Mar23-2019> <13:46:47>  >>>> CYCLE
 <Mar23-2019> <13:46:47>  CalcFitR12Fit
 <Mar23-2019> <13:46:47>  CalcFitCoeff
 <Mar23-2019> <13:46:47>  Orbital Data from active fragment used
 <Mar23-2019> <13:46:47>              |Error|         MaxErr       Wt(A-DIIS)
 <Mar23-2019> <13:46:47>      1      0.00006865      0.00005770
 <Mar23-2019> <13:46:47>      2      0.00001108      0.00000703
 <Mar23-2019> <13:46:47>      3      0.00000223      0.00000144    100.0
 <Mar23-2019> <13:46:48>      4      0.00000045      0.00000032      0.0
 <Mar23-2019> <13:46:48>  SCF converged
 <Mar23-2019> <13:46:48>      5      0.00000001      0.00000001      0.0
 <Mar23-2019> <13:46:48>   Total energy         -2.86167032 a.u.
 <Mar23-2019> <13:46:48>  >>>> POPAN
 <Mar23-2019> <13:46:48>  >>>> DEBYE
 <Mar23-2019> <13:46:48>  NORMAL TERMINATION
 <Mar23-2019> <13:46:48>  END
