
                                 *****************
                                 * O   R   C   A *
                                 *****************

                                            #,                                       
                                            ###                                      
                                            ####                                     
                                            #####                                    
                                            ######                                   
                                           ########,                                 
                                     ,,################,,,,,                         
                               ,,#################################,,                 
                          ,,##########################################,,             
                       ,#########################################, ''#####,          
                    ,#############################################,,   '####,        
                  ,##################################################,,,,####,       
                ,###########''''           ''''###############################       
              ,#####''   ,,,,##########,,,,          '''####'''          '####       
            ,##' ,,,,###########################,,,                        '##       
           ' ,,###''''                  '''############,,,                           
         ,,##''                                '''############,,,,        ,,,,,,###''
      ,#''                                            '''#######################'''  
     '                                                          ''''####''''         
             ,#######,   #######,   ,#######,      ##                                
            ,#'     '#,  ##    ##  ,#'     '#,    #''#        ######   ,####,        
            ##       ##  ##   ,#'  ##            #'  '#       #        #'  '#        
            ##       ##  #######   ##           ,######,      #####,   #    #        
            '#,     ,#'  ##    ##  '#,     ,#' ,#      #,         ##   #,  ,#        
             '#######'   ##     ##  '#######'  #'      '#     #####' # '####'        



                  #######################################################
                  #                        -***-                        #
                  #          Department of theory and spectroscopy      #
                  #    Directorship and core code : Frank Neese         #
                  #        Max Planck Institute fuer Kohlenforschung    #
                  #                Kaiser Wilhelm Platz 1               #
                  #                 D-45470 Muelheim/Ruhr               #
                  #                      Germany                        #
                  #                                                     #
                  #                  All rights reserved                #
                  #                        -***-                        #
                  #######################################################


                         Program Version 5.0.3 -  RELEASE  -


 With contributions from (in alphabetic order):
   Daniel Aravena         : Magnetic Suceptibility
   Michael Atanasov       : Ab Initio Ligand Field Theory (pilot matlab implementation)
   Alexander A. Auer      : GIAO ZORA, VPT2 properties, NMR spectrum
   Ute Becker             : Parallelization
   Giovanni Bistoni       : ED, misc. LED, open-shell LED, HFLD
   Martin Brehm           : Molecular dynamics
   Dmytro Bykov           : SCF Hessian
   Vijay G. Chilkuri      : MRCI spin determinant printing, contributions to CSF-ICE
   Dipayan Datta          : RHF DLPNO-CCSD density
   Achintya Kumar Dutta   : EOM-CC, STEOM-CC
   Dmitry Ganyushin       : Spin-Orbit,Spin-Spin,Magnetic field MRCI
   Miquel Garcia          : C-PCM and meta-GGA Hessian, CC/C-PCM, Gaussian charge scheme
   Yang Guo               : DLPNO-NEVPT2, F12-NEVPT2, CIM, IAO-localization
   Andreas Hansen         : Spin unrestricted coupled pair/coupled cluster methods
   Benjamin Helmich-Paris : MC-RPA, TRAH-SCF, COSX integrals
   Lee Huntington         : MR-EOM, pCC
   Robert Izsak           : Overlap fitted RIJCOSX, COSX-SCS-MP3, EOM
   Marcus Kettner         : VPT2
   Christian Kollmar      : KDIIS, OOCD, Brueckner-CCSD(T), CCSD density, CASPT2, CASPT2-K
   Simone Kossmann        : Meta GGA functionals, TD-DFT gradient, OOMP2, MP2 Hessian
   Martin Krupicka        : Initial AUTO-CI
   Lucas Lang             : DCDCAS
   Marvin Lechner         : AUTO-CI (C++ implementation), FIC-MRCC
   Dagmar Lenk            : GEPOL surface, SMD
   Dimitrios Liakos       : Extrapolation schemes; Compound Job, initial MDCI parallelization
   Dimitrios Manganas     : Further ROCIS development; embedding schemes
   Dimitrios Pantazis     : SARC Basis sets
   Anastasios Papadopoulos: AUTO-CI, single reference methods and gradients
   Taras Petrenko         : DFT Hessian,TD-DFT gradient, ASA, ECA, R-Raman, ABS, FL, XAS/XES, NRVS
   Peter Pinski           : DLPNO-MP2, DLPNO-MP2 Gradient
   Christoph Reimann      : Effective Core Potentials
   Marius Retegan         : Local ZFS, SOC
   Christoph Riplinger    : Optimizer, TS searches, QM/MM, DLPNO-CCSD(T), (RO)-DLPNO pert. Triples
   Tobias Risthaus        : Range-separated hybrids, TD-DFT gradient, RPA, STAB
   Michael Roemelt        : Original ROCIS implementation
   Masaaki Saitow         : Open-shell DLPNO-CCSD energy and density
   Barbara Sandhoefer     : DKH picture change effects
   Avijit Sen             : IP-ROCIS
   Kantharuban Sivalingam : CASSCF convergence, NEVPT2, FIC-MRCI
   Bernardo de Souza      : ESD, SOC TD-DFT
   Georgi Stoychev        : AutoAux, RI-MP2 NMR, DLPNO-MP2 response
   Willem Van den Heuvel  : Paramagnetic NMR
   Boris Wezisla          : Elementary symmetry handling
   Frank Wennmohs         : Technical directorship


 We gratefully acknowledge several colleagues who have allowed us to
 interface, adapt or use parts of their codes:
   Stefan Grimme, W. Hujo, H. Kruse, P. Pracht,  : VdW corrections, initial TS optimization,
                  C. Bannwarth, S. Ehlert          DFT functionals, gCP, sTDA/sTD-DF
   Ed Valeev, F. Pavosevic, A. Kumar             : LibInt (2-el integral package), F12 methods
   Garnet Chan, S. Sharma, J. Yang, R. Olivares  : DMRG
   Ulf Ekstrom                                   : XCFun DFT Library
   Mihaly Kallay                                 : mrcc  (arbitrary order and MRCC methods)
   Jiri Pittner, Ondrej Demel                    : Mk-CCSD
   Frank Weinhold                                : gennbo (NPA and NBO analysis)
   Christopher J. Cramer and Donald G. Truhlar   : smd solvation model
   Lars Goerigk                                  : TD-DFT with DH, B97 family of functionals
   V. Asgeirsson, H. Jonsson                     : NEB implementation
   FAccTs GmbH                                   : IRC, NEB, NEB-TS, DLPNO-Multilevel, CI-OPT
                                                   MM, QMMM, 2- and 3-layer-ONIOM, Crystal-QMMM,
                                                   LR-CPCM, SF, NACMEs, symmetry and pop. for TD-DFT,
                                                   nearIR, NL-DFT gradient (VV10), updates on ESD,
                                                   ML-optimized integration grids
   S Lehtola, MJT Oliveira, MAL Marques          : LibXC Library
   Liviu Ungur et al                             : ANISO software


 Your calculation uses the libint2 library for the computation of 2-el integrals
 For citations please refer to: http://libint.valeyev.net

 Your ORCA version has been built with support for libXC version: 5.1.0
 For citations please refer to: https://tddft.org/programs/libxc/

 This ORCA versions uses:
   CBLAS   interface :  Fast vector & matrix operations
   LAPACKE interface :  Fast linear algebra routines
   SCALAPACK package :  Parallel linear algebra routines
   Shared memory     :  Shared parallel matrices
   BLAS/LAPACK       :  OpenBLAS 0.3.15  USE64BITINT DYNAMIC_ARCH NO_AFFINITY Haswell SINGLE_THREADED
        Core in use  :  Haswell
   Copyright (c) 2011-2014, The OpenBLAS Project


Reading of a custom orbital basis requested
Basis file: ../../../../basis/aug-cc-pVQZ-CDF.bas
READING GTO-BASIS: HYDROGEN
READING GTO-BASIS: BORON
READING GTO-BASIS: CARBON
READING GTO-BASIS: NITROGEN
READING GTO-BASIS: OXYGEN
READING GTO-BASIS: FLUORINE
READING GTO-BASIS: NEON
Basis read successfully!



***************************************
The coordinates will be read from file: ../../../../../chem_database/F.xyz
***************************************


================================================================================

----- Orbital basis set information -----
Basis read from file: ../../../../basis/aug-cc-pVQZ-CDF.bas

================================================================================
                                        WARNINGS
                       Please study these warnings very carefully!
================================================================================


INFO   : the flag for use of the SHARK integral package has been found!


WARNING: TRAH-SCF with ROHF wave function is not implemented yet
  ===> : Turning TRAH off

================================================================================
                                       INPUT FILE
================================================================================
NAME = mol.inp
|  1> # ================================================================
|  2> # Orca input file
|  3> # ================================================================
|  4> ! ROHF cc-pVDZ VeryTightSCF UseSym
|  5> ! PAL4
|  6> 
|  7> %scf
|  8>   Guess = HCore
|  9>   ROHF_case SAHF    # configuration averaged HF
| 10>   ROHF_NumOp   2    # 2 operators in this case: closed, open
| 11>   ROHF_NOrb[1] 3    # 3 orbitals in first open shell
| 12>   ROHF_NEl[1]  5    # 5 electrons in first open shell
| 13> end
| 14> 
| 15> %basis
| 16> GTOName = "../../../../basis/aug-cc-pVQZ-CDF.bas";
| 17> newecp F
| 18>  N_core 2
| 19>  lmax d
| 20>  d 8
| 21>   1           20.57771591           7.00000000    1
| 22>   2           15.59263261       -3329.45348020    2
| 23>   3           32.93488567        3308.95181810    2
| 24>   4           11.29134029         328.00220983    3
| 25>   5           13.52928285        -183.95819844    3
| 26>   6           22.94499124      -35971.37313527    4
| 27>   7           28.43459254       38973.82440564    4
| 28>   8           20.51383821       54062.55362704    4
| 29>  s 8
| 30>   1           13.08699791        -422.57903755    2
| 31>   2           37.02055391         442.28423434    2
| 32>   3           17.57445226       -1942.08491240    3
| 33>   4           14.86289536        -939.74954158    3
| 34>   5           16.76291400        2881.83445398    3
| 35>   6           37.13249683       -1338.67537852    4
| 36>   7           16.23124201        4644.08909461    4
| 37>   8           31.58364731        7537.90264504    4
| 38>  p 8
| 39>   1           17.95834328       21835.18608275    2
| 40>   2           34.61887729      -21850.19680571    2
| 41>   3           10.36599377      149864.97484869    3
| 42>   4           10.26161141        4302.91424715    3
| 43>   5           10.36327865     -154167.88909585    3
| 44>   6           13.41173667       -1608.10190062    4
| 45>   7           21.43401515     -174393.97308379    4
| 46>   8           30.87534433     -188303.43971712    4
| 47> end
| 48> 
| 49> end
| 50> 
| 51> * xyzfile 0 2 ../../../../../chem_database/F.xyz
| 52> 
| 53>                          ****END OF INPUT****
================================================================================

------------------------------------------------------------------------------
                            SYMMETRY HANDLING SETUP
------------------------------------------------------------------------------

------------------
SYMMETRY DETECTION
------------------
The point group will now be determined using a tolerance of 1.0000e-04.
The Z matrix contains a single non-dummy atom.
No further testing needed for point group Kh.
This point group has been found:    Kh
Largest non-degenerate subgroup:    D2h


Symmetry-perfected Cartesians (point groups Kh and D2h):

Atom          Symmetry-perfected Cartesians (x, y, z; au)
  0       0.000000000000    0.000000000000    0.000000000000


-----------------------------------------------
SYMMETRY-PERFECTED CARTESIAN COORDINATES (A.U.)
-----------------------------------------------
Warning (ORCA_SYM): Coordinates were not cleaned so far!

------------------
SYMMETRY REDUCTION
------------------
ORCA supports only abelian point groups.
It is now checked, if the determined point group is supported:
Point Group ( D2h   ) is          ... supported

(Re)building abelian point group:
Creating Character Table          ... done
Making direct product table       ... done
Constructing symmetry operations  ... done
Creating atom transfer table      ... done
Creating asymmetric unit          ... done

----------------------
ASYMMETRIC UNIT IN D2h
----------------------
  #  AT     MASS              COORDS (A.U.)             BAS
   0 F   18.9980   0.00000000   0.00000000   0.00000000   0

----------------------
SYMMETRY ADAPTED BASIS
----------------------
The coefficients for the symmetry adapted linear combinations (SALCS)
of basis functions will now be computed:
Number of basis functions         ...    79
Preparing memory                  ... done
Constructing Gamma(red)           ... done
Reducing Gamma(red)               ... done
Constructing SALCs                ... done
Checking SALC integrity           ... nothing suspicious
Normalizing SALCs                 ... done

Storing the symmetry object:
Symmetry file                     ... mol.sym.tmp
Writing symmetry information      ... done

                       ****************************
                       * Single Point Calculation *
                       ****************************

---------------------------------
CARTESIAN COORDINATES (ANGSTROEM)
---------------------------------
  F      0.000000    0.000000    0.000000

----------------------------
CARTESIAN COORDINATES (A.U.)
----------------------------
  NO LB      ZA    FRAG     MASS         X           Y           Z
   0 F     7.0000*   0    18.998    0.000000    0.000000    0.000000
* core charge reduced due to ECP

--------------------------------
INTERNAL COORDINATES (ANGSTROEM)
--------------------------------
 F      0   0   0     0.000000000000     0.00000000     0.00000000

---------------------------
INTERNAL COORDINATES (A.U.)
---------------------------
 F      0   0   0     0.000000000000     0.00000000     0.00000000

---------------------
BASIS SET INFORMATION
---------------------
There are 1 groups of distinct atoms

 Group   1 Type F   : 14s14p4d3f2g contracted to 5s5p4d3f2g pattern {101111/101111/1111/111/11}

Atom   0F    basis set group =>   1
-------------------------
ECP PARAMETER INFORMATION
-------------------------

 Group 1, Type F  ECP (replacing 2 core electrons, lmax=2)

Atom   0F    ECP group =>   1



           ************************************************************
           *        Program running with 4 parallel MPI-processes     *
           *              working on a common directory               *
           ************************************************************
------------------------------------------------------------------------------
                           ORCA GTO INTEGRAL CALCULATION
------------------------------------------------------------------------------
------------------------------------------------------------------------------
                   ___                                                        
                  /   \      - P O W E R E D   B Y -                         
                 /     \                                                     
                 |  |  |   _    _      __       _____    __    __             
                 |  |  |  | |  | |    /  \     |  _  \  |  |  /  |          
                  \  \/   | |  | |   /    \    | | | |  |  | /  /          
                 / \  \   | |__| |  /  /\  \   | |_| |  |  |/  /          
                |  |  |   |  __  | /  /__\  \  |    /   |      \           
                |  |  |   | |  | | |   __   |  |    \   |  |\   \          
                \     /   | |  | | |  |  |  |  | |\  \  |  | \   \       
                 \___/    |_|  |_| |__|  |__|  |_| \__\ |__|  \__/        
                                                                              
                      - O R C A' S   B I G   F R I E N D -                    
                                      &                                       
                       - I N T E G R A L  F E E D E R -                       
                                                                              
 v1 FN, 2020, v2 2021                                                         
------------------------------------------------------------------------------


Reading SHARK input file mol.SHARKINP.tmp ... ok
----------------------
SHARK INTEGRAL PACKAGE
----------------------

Number of atoms                             ...      1
Number of basis functions                   ...     79
Number of shells                            ...     19
Maximum angular momentum                    ...      4
Integral batch strategy                     ... SHARK/LIBINT Hybrid
RI-J (if used) integral strategy            ... SPLIT-RIJ (Revised 2003 algorithm where possible)
Printlevel                                  ...      1
Contraction scheme used                     ... SEGMENTED contraction
Coulomb Range Separation                    ... NOT USED
Exchange Range Separation                   ... NOT USED
Finite Nucleus Model                        ... NOT USED
Auxiliary Coulomb fitting basis             ... NOT available
Auxiliary J/K fitting basis                 ... NOT available
Auxiliary Correlation fitting basis         ... NOT available
Auxiliary 'external' fitting basis          ... NOT available
Integral threshold                          ...     1.000000e-12
Primitive cut-off                           ...     1.000000e-14
Primitive pair pre-selection threshold      ...     1.000000e-14

Calculating pre-screening integrals         ... done (  0.0 sec) Dimension = 19
Organizing shell pair data                  ... done (  0.0 sec)
Shell pair information
Total number of shell pairs                 ...       190
Shell pairs after pre-screening             ...       190
Total number of primitive shell pairs       ...       793
Primitive shell pairs kept                  ...       793
          la=0 lb=0:     15 shell pairs
          la=1 lb=0:     25 shell pairs
          la=1 lb=1:     15 shell pairs
          la=2 lb=0:     20 shell pairs
          la=2 lb=1:     20 shell pairs
          la=2 lb=2:     10 shell pairs
          la=3 lb=0:     15 shell pairs
          la=3 lb=1:     15 shell pairs
          la=3 lb=2:     12 shell pairs
          la=3 lb=3:      6 shell pairs
          la=4 lb=0:     10 shell pairs
          la=4 lb=1:     10 shell pairs
          la=4 lb=2:      8 shell pairs
          la=4 lb=3:      6 shell pairs
          la=4 lb=4:      3 shell pairs

Calculating one electron integrals          ... done (  0.0 sec)
Calculating ECP integrals                   ... done (  0.0 sec)
Calculating Nuclear repulsion               ... done (  0.0 sec) ENN=      0.000000000000 Eh

SHARK setup successfully completed in   0.2 seconds

Maximum memory used throughout the entire GTOINT-calculation: 33.5 MB


           ************************************************************
           *        Program running with 4 parallel MPI-processes     *
           *              working on a common directory               *
           ************************************************************
-------------------------------------------------------------------------------
                                 ORCA SCF
-------------------------------------------------------------------------------

------------
SCF SETTINGS
------------
Hamiltonian:
 Ab initio Hamiltonian  Method          .... Hartree-Fock(GTOs)


General Settings:
 Integral files         IntName         .... mol
 Hartree-Fock type      HFTyp           .... ROHF
 Total Charge           Charge          ....    0
 Multiplicity           Mult            ....    2
 Number of Electrons    NEL             ....    7
 Basis Dimension        Dim             ....   79
 Nuclear Repulsion      ENuc            ....      0.0000000000 Eh

 Symmetry handling      UseSym         .... ON
 Point group                           .... D2h
 Used point group                      .... D2h
 Number of irreps                      .... 8
   Irrep   Ag has   19 symmetry adapted basis functions (ofs=   0)
   Irrep  B1g has    8 symmetry adapted basis functions (ofs=  19)
   Irrep  B2g has    8 symmetry adapted basis functions (ofs=  27)
   Irrep  B3g has    8 symmetry adapted basis functions (ofs=  35)
   Irrep   Au has    3 symmetry adapted basis functions (ofs=  43)
   Irrep  B1u has   11 symmetry adapted basis functions (ofs=  46)
   Irrep  B2u has   11 symmetry adapted basis functions (ofs=  57)
   Irrep  B3u has   11 symmetry adapted basis functions (ofs=  68)

Convergence Acceleration:
 DIIS                   CNVDIIS         .... on
   Start iteration      DIISMaxIt       ....    12
   Startup error        DIISStart       ....  0.200000
   # of expansion vecs  DIISMaxEq       ....     5
   Bias factor          DIISBfac        ....   1.050
   Max. coefficient     DIISMaxC        ....  10.000
 Trust-Rad. Augm. Hess. CNVTRAH         .... off
 SOSCF                  CNVSOSCF        .... off
 Level Shifting         CNVShift        .... on
   Level shift para.    LevelShift      ....    0.2500
   Turn off err/grad.   ShiftErr        ....    0.0010
 Zerner damping         CNVZerner       .... off
 Static damping         CNVDamp         .... on
   Fraction old density DampFac         ....    0.7000
   Max. Damping (<1)    DampMax         ....    0.9800
   Min. Damping (>=0)   DampMin         ....    0.0000
   Turn off err/grad.   DampErr         ....    0.1000
 Fernandez-Rico         CNVRico         .... off

SCF Procedure:
 Maximum # iterations   MaxIter         ....   125
 SCF integral mode      SCFMode         .... Direct
   Integral package                     .... SHARK and LIBINT hybrid scheme
 Reset frequency        DirectResetFreq ....    20
 Integral Threshold     Thresh          ....  1.000e-12 Eh
 Primitive CutOff       TCut            ....  1.000e-14 Eh

Convergence Tolerance:
 Convergence Check Mode ConvCheckMode   .... Total+1el-Energy
 Convergence forced     ConvForced      .... 0
 Energy Change          TolE            ....  1.000e-09 Eh
 1-El. energy change                    ....  1.000e-06 Eh
 DIIS Error             TolErr          ....  1.000e-08


Diagonalization of the overlap matrix:
Smallest eigenvalue                        ... 3.014e-03
Time for diagonalization                   ...    0.002 sec
Threshold for overlap eigenvalues          ... 1.000e-08
Number of eigenvalues below threshold      ... 0
Time for construction of square roots      ...    0.001 sec
Producing symmetrization matrix            ... done (   0.000 sec)
Total time needed                          ...    0.003 sec

--------------------
INITIAL GUESS: HCORE
--------------------
Diagonalizing the Hamiltonian                      ... done
Diagonalizing the Hamiltonian                      ... done
Back transforming the eigenvectors                 ... done
AVERAGE-CONFIGURATION (SAHF) CASE FOUND

-------------------
FINAL ROHF SETTINGS
-------------------
Number of operators             ... 2
  operator   0:   1 orbitals   2 electrons n(mue)= 2.000
  operator   1:   3 orbitals   5 electrons n(mue)= 1.667
Vector coupling coefficients a and b (Zerner convention):
   1.000    1.000           1.000    1.000 
   1.000    0.960           1.000    0.960 

Occupation of irreps:
Operator 0
    Ag occ= 1
   B1g occ= 0
   B2g occ= 0
   B3g occ= 0
    Au occ= 0
   B1u occ= 0
   B2u occ= 0
   B3u occ= 0
Operator 1
    Ag occ= 0
   B1g occ= 0
   B2g occ= 0
   B3g occ= 0
    Au occ= 0
   B1u occ= 1
   B2u occ= 1
   B3u occ= 1

                      -----------------
                      INTIAL GUESS DONE 
                      -----------------
--------------
SCF ITERATIONS
--------------
ITER       Energy         Delta-E        Max-DP      RMS-DP      [F,P]     Damp
               ***  Starting incremental Fock matrix formation  ***
  0    -20.2721956376   0.000000000000 0.85923665  0.01606689  1.1677327 0.7000
  1    -21.1137796648  -0.841584027259 0.41768967  0.00831693  0.2532474 0.7000
                            ****Activating DIIS****
  2    -22.6597205904  -1.545940925550 0.21654899  0.00488312  0.1678599 0.7000
  3    -23.1092720347  -0.449551444293 0.47053911  0.01116564  0.0292061 0.0000
  4    -23.8547433635  -0.745471328855 0.02054023  0.00030425  0.0586492 0.0000
  5    -23.8583494318  -0.003606068333 0.02639163  0.00044407  0.0375977 0.0000
  6    -23.8610052587  -0.002655826835 0.01028499  0.00026194  0.0073040 0.0000
  7    -23.8612392464  -0.000233987734 0.00143885  0.00002805  0.0014302 0.0000
  8    -23.8612417146  -0.000002468207 0.00050948  0.00000915  0.0004257 0.0000
  9    -23.8612419770  -0.000000262365 0.00004486  0.00000085  0.0000314 0.0000
 10    -23.8612419797  -0.000000002747 0.00001708  0.00000031  0.0000090 0.0000
                 **** Energy Check signals convergence ****

               *****************************************************
               *                     SUCCESS                       *
               *           SCF CONVERGED AFTER  11 CYCLES          *
               *****************************************************


----------------
TOTAL SCF ENERGY
----------------

Total Energy       :          -23.86124198 Eh            -649.29740 eV

Components:
Nuclear Repulsion  :            0.00000000 Eh               0.00000 eV
Electronic Energy  :          -23.86124198 Eh            -649.29740 eV
One Electron Energy:          -40.92720147 Eh           -1113.68577 eV
Two Electron Energy:           17.06595949 Eh             464.38837 eV

Virial components:
Potential Energy   :          -42.38983757 Eh           -1153.48612 eV
Kinetic Energy     :           18.52859559 Eh             504.18872 eV
Virial Ratio       :            2.28780629


---------------
SCF CONVERGENCE
---------------

  Last Energy change         ...   -2.6311e-10  Tolerance :   1.0000e-09
  Last MAX-Density change    ...    7.0199e-07  Tolerance :   1.0000e-08
  Last RMS-Density change    ...    1.5438e-08  Tolerance :   1.0000e-09
  Last DIIS Error            ...    3.9968e-07  Tolerance :   1.0000e-08

             **** THE GBW FILE WAS UPDATED (mol.gbw) ****
             **** DENSITY mol.scfp WAS UPDATED ****
             **** ENERGY FILE WAS UPDATED (mol.en.tmp) ****
             **** THE GBW FILE WAS UPDATED (mol.gbw) ****
             **** DENSITY mol.scfp WAS UPDATED ****
----------------
ORBITAL ENERGIES
----------------

  NO   OCC          E(Eh)            E(eV)    Irrep 
   0   2.0000      -1.572559       -42.7915    1-Ag
   1   1.6667      -0.730033       -19.8652    1-B1u
   2   1.6667      -0.730033       -19.8652    1-B2u
   3   1.6667      -0.730033       -19.8652    1-B3u
   4   0.0000       0.127026         3.4565    2-B3u
   5   0.0000       0.127026         3.4565    2-B2u
   6   0.0000       0.127026         3.4565    2-B1u
   7   0.0000       0.182006         4.9526    2-Ag
   8   0.0000       0.536829        14.6079    1-B2g
   9   0.0000       0.536829        14.6079    3-Ag
  10   0.0000       0.536829        14.6079    1-B1g
  11   0.0000       0.536829        14.6079    1-B3g
  12   0.0000       0.536829        14.6079    4-Ag
  13   0.0000       0.752848        20.4860    3-B2u
  14   0.0000       0.752848        20.4860    3-B1u
  15   0.0000       0.752848        20.4860    3-B3u
  16   0.0000       1.346856        36.6498    5-Ag
  17   0.0000       1.707724        46.4695    4-B1u
  18   0.0000       1.707724        46.4695    4-B3u
  19   0.0000       1.707724        46.4695    5-B1u
  20   0.0000       1.707724        46.4695    4-B2u
  21   0.0000       1.707724        46.4695    5-B3u
  22   0.0000       1.707724        46.4695    1-Au
  23   0.0000       1.707724        46.4695    5-B2u
  24   0.0000       1.850439        50.3530    2-B1g
  25   0.0000       1.850439        50.3530    6-Ag
  26   0.0000       1.850439        50.3530    2-B2g
  27   0.0000       1.850439        50.3530    7-Ag
  28   0.0000       1.850439        50.3530    2-B3g
  29   0.0000       2.967037        80.7372    6-B2u
  30   0.0000       2.967037        80.7372    6-B1u
  31   0.0000       2.967037        80.7372    6-B3u
  32   0.0000       4.503054       122.5343    3-B1g
  33   0.0000       4.503054       122.5343    3-B2g
  34   0.0000       4.503054       122.5343    8-Ag
  35   0.0000       4.503054       122.5343    9-Ag
  36   0.0000       4.503054       122.5343    4-B2g
  37   0.0000       4.503054       122.5343    3-B3g
  38   0.0000       4.503054       122.5343   10-Ag
  39   0.0000       4.503054       122.5343    4-B3g
  40   0.0000       4.503054       122.5343    4-B1g
  41   0.0000       5.214684       141.8988    7-B1u
  42   0.0000       5.214684       141.8988    7-B3u
  43   0.0000       5.214684       141.8988    7-B2u
  44   0.0000       5.214684       141.8988    8-B1u
  45   0.0000       5.214684       141.8988    2-Au
  46   0.0000       5.214684       141.8988    8-B2u
  47   0.0000       5.214684       141.8988    8-B3u
  48   0.0000       5.375338       146.2704    5-B3g
  49   0.0000       5.375338       146.2704    5-B2g
  50   0.0000       5.375338       146.2704   11-Ag
  51   0.0000       5.375338       146.2704    5-B1g
  52   0.0000       5.375338       146.2704   12-Ag
  53   0.0000       5.915393       160.9660   13-Ag
  54   0.0000      11.632064       316.5245    9-B3u
  55   0.0000      11.632064       316.5245    9-B1u
  56   0.0000      11.632064       316.5245    9-B2u
  57   0.0000      13.326190       362.6241   14-Ag
  58   0.0000      13.326190       362.6241    6-B3g
  59   0.0000      13.326190       362.6241    6-B1g
  60   0.0000      13.326190       362.6241   15-Ag
  61   0.0000      13.326190       362.6241    6-B2g
  62   0.0000      13.326190       362.6241   16-Ag
  63   0.0000      13.326190       362.6241    7-B3g
  64   0.0000      13.326190       362.6241    7-B2g
  65   0.0000      13.326190       362.6241    7-B1g
  66   0.0000      15.229715       414.4216   10-B2u
  67   0.0000      15.229715       414.4216    3-Au
  68   0.0000      15.229715       414.4216   10-B1u
  69   0.0000      15.229715       414.4216   11-B1u
  70   0.0000      15.229715       414.4216   11-B2u
  71   0.0000      15.229715       414.4216   10-B3u
  72   0.0000      15.229715       414.4216   11-B3u
  73   0.0000      16.152615       439.5350    8-B1g
  74   0.0000      16.152615       439.5350    8-B2g
  75   0.0000      16.152615       439.5350   17-Ag
  76   0.0000      16.152615       439.5350    8-B3g
  77   0.0000      16.152615       439.5350   18-Ag
  78   0.0000      23.121319       629.1631   19-Ag

                    ********************************
                    * MULLIKEN POPULATION ANALYSIS *
                    ********************************

--------------------------------------------
MULLIKEN ATOMIC CHARGES AND SPIN POPULATIONS
--------------------------------------------
   0 F :    0.000000    1.000000
Sum of atomic charges         :    0.0000000
Sum of atomic spin populations:    1.0000000

-----------------------------------------------------
MULLIKEN REDUCED ORBITAL CHARGES AND SPIN POPULATIONS
-----------------------------------------------------
CHARGE
  0 F s       :     2.000000  s :     2.000000
      pz      :     1.666667  p :     5.000000
      px      :     1.666667
      py      :     1.666667
      dz2     :     0.000000  d :     0.000000
      dxz     :     0.000000
      dyz     :     0.000000
      dx2y2   :     0.000000
      dxy     :     0.000000
      f0      :     0.000000  f :     0.000000
      f+1     :     0.000000
      f-1     :     0.000000
      f+2     :     0.000000
      f-2     :     0.000000
      f+3     :     0.000000
      f-3     :     0.000000
      g0      :     0.000000  g :     0.000000
      g+1     :     0.000000
      g-1     :     0.000000
      g+2     :     0.000000
      g-2     :     0.000000
      g+3     :     0.000000
      g-3     :     0.000000
      g+4     :     0.000000
      g-4     :     0.000000

SPIN
  0 F s       :     0.000000  s :     0.000000
      pz      :     0.333333  p :     1.000000
      px      :     0.333333
      py      :     0.333333
      dz2     :     0.000000  d :     0.000000
      dxz     :     0.000000
      dyz     :     0.000000
      dx2y2   :     0.000000
      dxy     :     0.000000
      f0      :     0.000000  f :     0.000000
      f+1     :     0.000000
      f-1     :     0.000000
      f+2     :     0.000000
      f-2     :     0.000000
      f+3     :     0.000000
      f-3     :     0.000000
      g0      :     0.000000  g :     0.000000
      g+1     :     0.000000
      g-1     :     0.000000
      g+2     :     0.000000
      g-2     :     0.000000
      g+3     :     0.000000
      g-3     :     0.000000
      g+4     :     0.000000
      g-4     :     0.000000


                     *******************************
                     * LOEWDIN POPULATION ANALYSIS *
                     *******************************

-------------------------------------------
LOEWDIN ATOMIC CHARGES AND SPIN POPULATIONS
-------------------------------------------
   0 F :    0.000000    1.000000

----------------------------------------------------
LOEWDIN REDUCED ORBITAL CHARGES AND SPIN POPULATIONS
----------------------------------------------------
CHARGE
  0 F s       :     2.000000  s :     2.000000
      pz      :     1.666667  p :     5.000000
      px      :     1.666667
      py      :     1.666667
      dz2     :     0.000000  d :     0.000000
      dxz     :     0.000000
      dyz     :     0.000000
      dx2y2   :     0.000000
      dxy     :     0.000000
      f0      :     0.000000  f :     0.000000
      f+1     :     0.000000
      f-1     :     0.000000
      f+2     :     0.000000
      f-2     :     0.000000
      f+3     :     0.000000
      f-3     :     0.000000
      g0      :     0.000000  g :     0.000000
      g+1     :     0.000000
      g-1     :     0.000000
      g+2     :     0.000000
      g-2     :     0.000000
      g+3     :     0.000000
      g-3     :     0.000000
      g+4     :     0.000000
      g-4     :     0.000000

SPIN
  0 F s       :     0.000000  s :     0.000000
      pz      :     0.333333  p :     1.000000
      px      :     0.333333
      py      :     0.333333
      dz2     :     0.000000  d :     0.000000
      dxz     :     0.000000
      dyz     :     0.000000
      dx2y2   :     0.000000
      dxy     :     0.000000
      f0      :     0.000000  f :     0.000000
      f+1     :     0.000000
      f-1     :     0.000000
      f+2     :     0.000000
      f-2     :     0.000000
      f+3     :     0.000000
      f-3     :     0.000000
      g0      :     0.000000  g :     0.000000
      g+1     :     0.000000
      g-1     :     0.000000
      g+2     :     0.000000
      g-2     :     0.000000
      g+3     :     0.000000
      g-3     :     0.000000
      g+4     :     0.000000
      g-4     :     0.000000


                      *****************************
                      * MAYER POPULATION ANALYSIS *
                      *****************************

  NA   - Mulliken gross atomic population
  ZA   - Total nuclear charge
  QA   - Mulliken gross atomic charge
  VA   - Mayer's total valence
  BVA  - Mayer's bonded valence
  FA   - Mayer's free valence

  ATOM       NA         ZA         QA         VA         BVA        FA
  0 F      7.0000     7.0000     0.0000     1.6667     0.0000     1.6667

  Mayer bond orders larger than 0.100000



Warning: MO coefficients are modified such that the real solid harmonic m components
have the correct order within each shell (0, +1, -1, +2, -2, ...) and all s orbitals
come before all p orbitals etc. (with increasing orbital energy within each block of given angular momentum).

--------------------------
ATOM BASIS FOR ELEMENT F 
--------------------------
 NewGTO F 
 S 14
    1         74.899510000000        -0.002467216412
    2         46.741990000000         0.019162913861
    3         29.164360000000        -0.081126234318
    4         18.197000000000         0.213861077748
    5         11.373050000000        -0.254907041555
    6          3.968850000000        -0.064429537187
    7          2.041550000000         0.236111011172
    8          0.910370000000         0.462247190350
    9          0.410300000000         0.379138585632
   10          0.181530000000         0.090322313644
   11          2.330400000000        -0.001960804748
   12          0.835700000000         0.000545164105
   13          0.299700000000         0.001128907286
   14          0.124400000000         0.000323988726
 S 14
    1         74.899510000000        -0.001020326452
    2         46.741990000000         0.007924893747
    3         29.164360000000        -0.033550053594
    4         18.197000000000         0.088443037944
    5         11.373050000000        -0.105417747754
    6          3.968850000000        -0.026645072877
    7          2.041550000000         0.097644580023
    8          0.910370000000         0.191164031464
    9          0.410300000000         0.156794161276
   10          0.181530000000         0.037353126137
   11          2.330400000000         0.087946376599
   12          0.835700000000        -0.429348467165
   13          0.299700000000         1.416142446362
   14          0.124400000000        -1.997137154053
 S 14
    1         74.899510000000        -0.000583713073
    2         46.741990000000         0.004533709843
    3         29.164360000000        -0.019193469726
    4         18.197000000000         0.050596901926
    5         11.373050000000        -0.060307872370
    6          3.968850000000        -0.015243236443
    7          2.041550000000         0.055860962648
    8          0.910370000000         0.109362002670
    9          0.410300000000         0.089699528477
   10          0.181530000000         0.021369149044
   11          2.330400000000        -0.364802346792
   12          0.835700000000         2.470336261066
   13          0.299700000000        -3.927491890649
   14          0.124400000000         1.763558593016
 S 14
    1         74.899510000000        -0.011230435379
    2         46.741990000000         0.087226991810
    3         29.164360000000        -0.369275645018
    4         18.197000000000         0.973466697838
    5         11.373050000000        -1.160302372976
    6          3.968850000000        -0.293274538168
    7          2.041550000000         1.074745385131
    8          0.910370000000         2.104086684275
    9          0.410300000000         1.725787557346
   10          0.181530000000         0.411134954197
   11          2.330400000000         2.475141570815
   12          0.835700000000        -6.857605826019
   13          0.299700000000         1.064670413360
   14          0.124400000000        -0.945850367682
 S 14
    1         74.899510000000        -0.031599471106
    2         46.741990000000         0.245433655444
    3         29.164360000000        -1.039043873264
    4         18.197000000000         2.739077493635
    5         11.373050000000        -3.264783605528
    6          3.968850000000        -0.825196885251
    7          2.041550000000         3.024048898988
    8          0.910370000000         5.920342723950
    9          0.410300000000         4.855909162192
   10          0.181530000000         1.156824884085
   11          2.330400000000         0.079108469974
   12          0.835700000000        -9.807951658147
   13          0.299700000000        -3.165391479254
   14          0.124400000000        -0.528300270907
 P 14
    1         67.315050000000        -0.001108223113
    2         42.089490000000         0.007850412915
    3         26.316540000000        -0.034208151814
    4         16.189310000000         0.078800653713
    5          5.977230000000         0.112179135791
    6          2.908510000000         0.189476200308
    7          1.438460000000         0.275643043325
    8          0.680460000000         0.314221188440
    9          0.304980000000         0.240385573951
   10          0.128040000000         0.074658295430
   11          1.785000000000         0.000895890478
   12          0.609100000000         0.000674807712
   13          0.207800000000         0.000182115731
   14          0.069500000000         0.000221725577
 P 14
    1         67.315050000000        -0.000188522298
    2         42.089490000000         0.001335451195
    3         26.316540000000        -0.005819224759
    4         16.189310000000         0.013404954399
    5          5.977230000000         0.019083042195
    6          2.908510000000         0.032232217694
    7          1.438460000000         0.046890250933
    8          0.680460000000         0.053452864968
    9          0.304980000000         0.040892524430
   10          0.128040000000         0.012700288622
   11          1.785000000000         0.034193151092
   12          0.609100000000        -0.094352812542
   13          0.207800000000         0.446235918808
   14          0.069500000000        -1.266855136110
 P 14
    1         67.315050000000        -0.000729284171
    2         42.089490000000         0.005166091387
    3         26.316540000000        -0.022511228437
    4         16.189310000000         0.051856046663
    5          5.977230000000         0.073821297491
    6          2.908510000000         0.124687882927
    7          1.438460000000         0.181391369785
    8          0.680460000000         0.206778343103
    9          0.304980000000         0.158189620930
   10          0.128040000000         0.049130100693
   11          1.785000000000        -0.145216480297
   12          0.609100000000         0.566317449420
   13          0.207800000000        -2.018020336706
   14          0.069500000000         0.844657015982
 P 14
    1         67.315050000000        -0.001080416352
    2         42.089490000000         0.007653435834
    3         26.316540000000        -0.033349824745
    4         16.189310000000         0.076823442713
    5          5.977230000000         0.109364415216
    6          2.908510000000         0.184721995744
    7          1.438460000000         0.268726800479
    8          0.680460000000         0.306336969704
    9          0.304980000000         0.234353986917
   10          0.128040000000         0.072785021592
   11          1.785000000000         0.815796321153
   12          0.609100000000        -2.468700741794
   13          0.207800000000         1.036825486797
   14          0.069500000000        -0.412408793211
 P 14
    1         67.315050000000        -0.007121113197
    2         42.089490000000         0.050444426186
    3         26.316540000000        -0.219811442760
    4         16.189310000000         0.506349640800
    5          5.977230000000         0.720829871789
    6          2.908510000000         1.217517894143
    7          1.438460000000         1.771200483742
    8          0.680460000000         2.019092208000
    9          0.304980000000         1.544646437405
   10          0.128040000000         0.479732074445
   11          1.785000000000        -4.266377515390
   12          0.609100000000        -1.561969001864
   13          0.207800000000        -1.893940949202
   14          0.069500000000         0.100399822343
 D 4
    1          4.825000000000        -0.007772943023
    2          1.673200000000         0.070890062853
    3          0.580300000000        -0.187361724027
    4          0.197400000000         1.096189429862
 D 4
    1          4.825000000000         0.058489590682
    2          1.673200000000        -0.107936398542
    3          0.580300000000         1.332892412863
    4          0.197400000000        -0.697245054628
 D 4
    1          4.825000000000        -0.046936257927
    2          1.673200000000         1.395887245441
    3          0.580300000000        -1.081038697098
    4          0.197400000000         0.370327045227
 D 4
    1          4.825000000000         1.377801245208
    2          1.673200000000        -1.177830619705
    3          0.580300000000         0.557050881051
    4          0.197400000000        -0.179224760974
 F 3
    1          3.501200000000         0.038130244337
    2          1.137600000000        -0.215321242744
    3          0.441900000000         1.116096178872
 F 3
    1          3.501200000000        -0.092392677447
    2          1.137600000000         1.314690956854
    3          0.441900000000        -0.646741501657
 F 3
    1          3.501200000000         1.204048606582
    2          1.137600000000        -0.733595217332
    3          0.441900000000         0.280308124875
 G 2
    1          2.367000000000         0.157278799839
    2          0.908900000000        -1.076965863450
 G 2
    1          2.367000000000         1.182181210607
    2          0.908900000000        -0.512282699838
 end
-------------------------------------------
RADIAL EXPECTATION VALUES <R**-3> TO <R**3>
-------------------------------------------
   0 :     0.000000     2.078574     1.234098     1.005307     1.218638     1.751954
   1 :     0.000000     0.239107     0.371765     3.188942    10.984189    40.037777
   2 :     0.000000     0.940360     0.693857     2.159898     6.057352    20.467560
   3 :     0.000000     3.647012     1.440719     1.136794     2.033673     5.285580
   4 :     0.000000    26.298774     3.891091     0.448898     0.406890     0.717320
   5 :     6.301128     2.281194     1.260924     1.085890     1.545380     2.771380
   6 :     6.301128     2.281194     1.260924     1.085890     1.545380     2.771380
   7 :     6.301128     2.281194     1.260924     1.085890     1.545380     2.771380
   8 :     0.216884     0.122586     0.255633     4.580547    22.509436   116.946509
   9 :     0.216884     0.122586     0.255633     4.580547    22.509436   116.946509
  10 :     0.216884     0.122586     0.255633     4.580547    22.509436   116.946509
  11 :     1.893243     0.688930     0.555933     2.818702    10.263181    45.562917
  12 :     1.893243     0.688930     0.555933     2.818702    10.263181    45.562917
  13 :     1.893243     0.688930     0.555933     2.818702    10.263181    45.562917
  14 :     6.908860     2.196790     1.121696     1.524495     3.599551    12.266780
  15 :     6.908860     2.196790     1.121696     1.524495     3.599551    12.266780
  16 :     6.908860     2.196790     1.121696     1.524495     3.599551    12.266780
  17 :    40.119948     8.234268     2.344433     0.747924     1.076419     2.853937
  18 :    40.119948     8.234268     2.344433     0.747924     1.076419     2.853937
  19 :    40.119948     8.234268     2.344433     0.747924     1.076419     2.853937
  20 :     0.061909     0.138712     0.355783     3.015933     9.653254   162.867059
  21 :     0.061909     0.138712     0.355783     3.015933     9.653254   162.867059
  22 :     0.061909     0.138712     0.355783     3.015933     9.653254   162.867059
  23 :     0.061909     0.138712     0.355783     3.015933     9.653254   162.867059
  24 :     0.061909     0.138712     0.355783     3.015933     9.653254   162.867059
  25 :     0.419551     0.469325     0.632566     1.881026     4.319054    60.463306
  26 :     0.419551     0.469325     0.632566     1.881026     4.319054    60.463306
  27 :     0.419551     0.469325     0.632566     1.881026     4.319054    60.463306
  28 :     0.419551     0.469325     0.632566     1.881026     4.319054    60.463306
  29 :     0.419551     0.469325     0.632566     1.881026     4.319054    60.463306
  30 :     1.839423     1.292197     1.045815     1.202027     1.949233    21.650885
  31 :     1.839423     1.292197     1.045815     1.202027     1.949233    21.650885
  32 :     1.839423     1.292197     1.045815     1.202027     1.949233    21.650885
  33 :     1.839423     1.292197     1.045815     1.202027     1.949233    21.650885
  34 :     1.839423     1.292197     1.045815     1.202027     1.949233    21.650885
  35 :     9.901451     3.920486     1.808752     0.717975     0.755849     6.303181
  36 :     9.901451     3.920486     1.808752     0.717975     0.755849     6.303181
  37 :     9.901451     3.920486     1.808752     0.717975     0.755849     6.303181
  38 :     9.901451     3.920486     1.808752     0.717975     0.755849     6.303181
  39 :     9.901451     3.920486     1.808752     0.717975     0.755849     6.303181
  40 :     0.109046     0.215086     0.452028     2.315941     5.596401    98.526683
  41 :     0.109046     0.215086     0.452028     2.315941     5.596401    98.526683
  42 :     0.109046     0.215086     0.452028     2.315941     5.596401    98.526683
  43 :     0.109046     0.215086     0.452028     2.315941     5.596401    98.526683
  44 :     0.109046     0.215086     0.452028     2.315941     5.596401    98.526683
  45 :     0.109046     0.215086     0.452028     2.315941     5.596401    98.526683
  46 :     0.109046     0.215086     0.452028     2.315941     5.596401    98.526683
  47 :     0.557631     0.627112     0.758891     1.467796     2.468912    33.925444
  48 :     0.557631     0.627112     0.758891     1.467796     2.468912    33.925444
  49 :     0.557631     0.627112     0.758891     1.467796     2.468912    33.925444
  50 :     0.557631     0.627112     0.758891     1.467796     2.468912    33.925444
  51 :     0.557631     0.627112     0.758891     1.467796     2.468912    33.925444
  52 :     0.557631     0.627112     0.758891     1.467796     2.468912    33.925444
  53 :     0.557631     0.627112     0.758891     1.467796     2.468912    33.925444
  54 :     3.432587     2.061059     1.360638     0.851128     0.900455     8.885139
  55 :     3.432587     2.061059     1.360638     0.851128     0.900455     8.885139
  56 :     3.432587     2.061059     1.360638     0.851128     0.900455     8.885139
  57 :     3.432587     2.061059     1.360638     0.851128     0.900455     8.885139
  58 :     3.432587     2.061059     1.360638     0.851128     0.900455     8.885139
  59 :     3.432587     2.061059     1.360638     0.851128     0.900455     8.885139
  60 :     3.432587     2.061059     1.360638     0.851128     0.900455     8.885139
  61 :     0.229597     0.360174     0.588507     1.764469     3.228122    42.801371
  62 :     0.229597     0.360174     0.588507     1.764469     3.228122    42.801371
  63 :     0.229597     0.360174     0.588507     1.764469     3.228122    42.801371
  64 :     0.229597     0.360174     0.588507     1.764469     3.228122    42.801371
  65 :     0.229597     0.360174     0.588507     1.764469     3.228122    42.801371
  66 :     0.229597     0.360174     0.588507     1.764469     3.228122    42.801371
  67 :     0.229597     0.360174     0.588507     1.764469     3.228122    42.801371
  68 :     0.229597     0.360174     0.588507     1.764469     3.228122    42.801371
  69 :     0.229597     0.360174     0.588507     1.764469     3.228122    42.801371
  70 :     1.275243     1.095782     1.008758     1.082845     1.309647    12.657096
  71 :     1.275243     1.095782     1.008758     1.082845     1.309647    12.657096
  72 :     1.275243     1.095782     1.008758     1.082845     1.309647    12.657096
  73 :     1.275243     1.095782     1.008758     1.082845     1.309647    12.657096
  74 :     1.275243     1.095782     1.008758     1.082845     1.309647    12.657096
  75 :     1.275243     1.095782     1.008758     1.082845     1.309647    12.657096
  76 :     1.275243     1.095782     1.008758     1.082845     1.309647    12.657096
  77 :     1.275243     1.095782     1.008758     1.082845     1.309647    12.657096
  78 :     1.275243     1.095782     1.008758     1.082845     1.309647    12.657096
-------
TIMINGS
-------

Total SCF time: 0 days 0 hours 0 min 0 sec 

Total time                  ....       0.703 sec
Sum of individual times     ....       0.535 sec  ( 76.1%)

Fock matrix formation       ....       0.510 sec  ( 72.6%)
Diagonalization             ....       0.011 sec  (  1.5%)
Density matrix formation    ....       0.001 sec  (  0.1%)
Population analysis         ....       0.003 sec  (  0.4%)
Initial guess               ....       0.001 sec  (  0.1%)
Orbital Transformation      ....       0.000 sec  (  0.0%)
Orbital Orthonormalization  ....       0.000 sec  (  0.0%)
DIIS solution               ....       0.010 sec  (  1.4%)

Maximum memory used throughout the entire SCF-calculation: 228.3 MB

-------------------------   --------------------
FINAL SINGLE POINT ENERGY       -23.861241979994
-------------------------   --------------------


                            ***************************************
                            *     ORCA property calculations      *
                            ***************************************

                                    ---------------------
                                    Active property flags
                                    ---------------------
   (+) Dipole Moment


------------------------------------------------------------------------------
                       ORCA ELECTRIC PROPERTIES CALCULATION
------------------------------------------------------------------------------

Dipole Moment Calculation                       ... on
Quadrupole Moment Calculation                   ... off
Polarizability Calculation                      ... off
GBWName                                         ... mol.gbw
Electron density                                ... mol.scfp
The origin for moment calculation is the CENTER OF MASS  = ( 0.000000,  0.000000  0.000000)

-------------
DIPOLE MOMENT
-------------
                                X             Y             Z
Electronic contribution:     -0.00000      -0.00000      -0.00000
Nuclear contribution   :      0.00000       0.00000       0.00000
                        -----------------------------------------
Total Dipole Moment    :     -0.00000      -0.00000      -0.00000
                        -----------------------------------------
Magnitude (a.u.)       :      0.00000
Magnitude (Debye)      :      0.00000



--------------------
Rotational spectrum 
--------------------
 
Rotational constants in cm-1:     0.000000     0.000000     0.000000 
Rotational constants in MHz :     0.000000     0.000000     0.000000 

 Dipole components along the rotational axes: 
x,y,z [a.u.] :    -0.000000    -0.000000    -0.000000 
x,y,z [Debye]:    -0.000000    -0.000000    -0.000000 

 

Timings for individual modules:

Sum of individual times         ...        1.792 sec (=   0.030 min)
GTO integral calculation        ...        0.678 sec (=   0.011 min)  37.8 %
SCF iterations                  ...        1.114 sec (=   0.019 min)  62.2 %
                             ****ORCA TERMINATED NORMALLY****
TOTAL RUN TIME: 0 days 0 hours 0 minutes 2 seconds 402 msec
