[Molden Format]
[Atoms] (Angs)
  H      1    1      0.00000000      0.00000000      0.00000000
[GTO]
1    0
S    3    1.000000
   8.26400000E+01    2.00600000E-03 
   1.24100000E+01    1.53430000E-02 
   2.82400000E+00    7.55790000E-02 
S    1    1.000000
   7.97700000E-01    1.00000000E+00 
S    1    1.000000
   2.58100000E-01    1.00000000E+00 
S    1    1.000000
   8.98900000E-02    1.00000000E+00 
P    1    1.000000
   2.29200000E+00    1.00000000E+00 
P    1    1.000000
   8.38000000E-01    1.00000000E+00 
P    1    1.000000
   2.92000000E-01    1.00000000E+00 
D    1    1.000000
   2.06200000E+00    1.00000000E+00 
D    1    1.000000
   6.62000000E-01    1.00000000E+00 
F    1    1.000000
   1.39700000E+00    1.00000000E+00 

[MO]
Sym=X
Ene= -0.499946
Spin=Alpha
Occup=1
     1    8.740575819791e-02
     2    2.568738775323e-01
     3    4.973693437875e-01
     4    2.961322909045e-01
     5    1.757987871743e-20
     6   -1.097998128606e-16
     7    1.256192995278e-16
     8    2.206227007777e-20
     9    1.001417055071e-16
    10   -9.833271828131e-17
    11    2.586541325635e-19
    12   -3.387952814322e-17
    13    9.087736818810e-18
    14    3.132463766202e-11
    15    6.464667777771e-17
    16   -3.541975129566e-18
    17    6.028406361055e-12
    18   -1.128572233889e-17
    19   -1.714303854138e-10
    20   -4.940691501196e-16
    21    1.060153458838e-17
    22   -3.299160682155e-11
    23    2.897697137784e-17
    24    4.367551358113e-18
    25   -1.664290080038e-22
    26    8.328079250089e-19
    27    3.147623209730e-18
    28   -2.335999296269e-17
    29    1.768967299044e-24
    30   -3.012527025705e-17
Sym=X
Ene= 0.267390
Spin=Alpha
Occup=0
     1   -7.885925469942e-02
     2    5.857688287271e-02
     3   -1.504178392139e+00
     4    1.739774327920e+00
     5    3.609012732906e-17
     6    1.054144334782e-16
     7   -2.829067279911e-16
     8   -6.546759827012e-17
     9   -7.294924250397e-17
    10    7.508223866532e-16
    11    5.452030070799e-16
    12   -3.658808879514e-19
    13   -1.109251961478e-15
    14    1.534124581531e-11
    15   -2.287831693658e-17
    16    3.487719692786e-18
    17    2.952345165793e-12
    18   -1.262304155504e-18
    19   -2.785937974361e-11
    20    4.420300123830e-17
    21    1.746012991094e-17
    22   -5.361398462953e-12
    23    2.333628584349e-17
    24    3.535565166109e-17
    25    2.164130462634e-23
    26   -4.432216097194e-17
    27   -1.014316510032e-17
    28    3.793939975028e-17
    29    1.249036921027e-21
    30    8.716242563772e-17
Sym=X
Ene= 0.531935
Spin=Alpha
Occup=0
     1   -7.848400019593e-18
     2   -2.856432118835e-15
     3    3.286763052050e-15
     4   -9.017501351439e-16
     5   -8.480235787559e-18
     6    1.460822551183e-17
     7    7.225290683919e-02
     8    1.907943698924e-16
     9   -1.869448235228e-16
    10   -2.534206948844e-01
    11   -2.587612597270e-16
    12    3.198670238702e-16
    13    1.150059702498e+00
    14    1.224094391497e-16
    15    1.694567249306e-16
    16    6.347508398011e-18
    17   -1.415481086555e-16
    18   -1.928306543549e-17
    19   -9.034662496783e-17
    20   -1.191012689937e-16
    21    2.839433630306e-17
    22    9.973804607136e-17
    23    4.826632021111e-17
    24   -2.742757716600e-11
    25    6.264654607154e-18
    26    5.985654165423e-17
    27   -3.934269784235e-12
    28    1.170402386203e-17
    29   -4.177295106037e-19
    30   -6.347021605119e-17
Sym=X
Ene= 0.531935
Spin=Alpha
Occup=0
     1    7.270082115271e-17
     2    5.600380687616e-16
     3   -6.877451883615e-17
     4   -5.341379807633e-16
     5    7.225290689877e-02
     6   -1.369073086700e-17
     7   -6.212061549313e-17
     8   -2.534206951956e-01
     9    2.518141357567e-17
    10    5.540709720415e-16
    11    1.150059702679e+00
    12   -1.381873539046e-16
    13   -2.214793163119e-16
    14    3.586675189981e-18
    15    1.349179515387e-16
    16    3.957196184275e-17
    17    8.105356961202e-18
    18   -1.046202339535e-16
    19   -3.017698907325e-18
    20    2.665484694555e-18
    21   -2.062129488383e-17
    22   -4.204043951219e-17
    23    4.449296222854e-17
    24   -9.294312903120e-17
    25   -2.114986567777e-11
    26   -1.078710321726e-16
    27    6.441892585027e-17
    28   -2.106012463457e-18
    29   -4.818754889958e-12
    30   -4.636050633284e-18
Sym=X
Ene= 0.531935
Spin=Alpha
Occup=0
     1   -5.555850322477e-18
     2   -1.194638059998e-16
     3    1.457712360099e-16
     4   -4.618788473537e-17
     5    7.873277777450e-18
     6    7.225290691366e-02
     7   -2.646718539786e-16
     8   -1.715534232642e-17
     9   -2.534206952734e-01
    10    1.633733888345e-16
    11    1.634613107218e-16
    12    1.150059702725e+00
    13    1.377282719076e-16
    14    1.188627087433e-17
    15    3.333769847445e-17
    16   -7.220308429951e-17
    17    1.443229052157e-16
    18    2.571659721357e-17
    19   -1.141839166298e-16
    20   -6.958326578070e-17
    21    3.707159737629e-16
    22   -4.042063832622e-16
    23   -7.377999664655e-17
    24   -4.334198567319e-17
    25   -1.269652674170e-18
    26   -2.363841908950e-11
    27   -8.069934723503e-17
    28   -6.579210086115e-17
    29    5.159653565121e-20
    30   -4.818233136457e-12
Sym=X
Ene= 1.491512
Spin=Alpha
Occup=0
     1   -2.140630693567e-02
     2   -1.889607347817e+00
     3    2.591238696429e+00
     4   -1.082095485396e+00
     5    4.942504260453e-17
     6    1.249740112445e-16
     7   -2.070071600312e-17
     8   -4.690000298841e-16
     9   -2.434704926468e-16
    10   -9.071156302218e-16
    11    6.183717930561e-16
    12    7.667475383105e-17
    13   -5.531193803566e-16
    14    9.770500755681e-11
    15   -9.211337342800e-17
    16    2.114454580985e-17
    17    1.880332640876e-11
    18   -2.399288053537e-18
    19   -5.049949863392e-10
    20    2.464139976970e-16
    21   -2.902225890079e-16
    22   -9.718551270646e-11
    23    7.991179121137e-17
    24    1.817259702380e-17
    25   -3.524622789542e-22
    26   -2.451976511101e-17
    27   -2.523356796504e-17
    28   -6.673333059797e-17
    29   -4.762293231978e-21
    30   -9.885838429813e-17
Sym=X
Ene= 2.068160
Spin=Alpha
Occup=0
     1   -7.979964557931e-12
     2   -7.851731966048e-10
     3    1.186654086447e-09
     4   -3.978574994970e-10
     5    2.749919136724e-19
     6   -5.911369163030e-16
     7   -9.554004198663e-16
     8   -2.359662457841e-18
     9    5.415090528334e-15
    10    7.544621864778e-15
    11    1.804981795529e-18
    12   -3.233546716852e-15
    13   -4.183931369408e-15
    14   -1.462867023969e-01
    15    3.166401856832e-16
    16   -7.703468193746e-17
    17    1.394846621766e-02
    18    1.217948145461e-16
    19    1.073909721241e+00
    20   -1.084144574245e-15
    21   -5.020851322321e-16
    22   -1.023975058711e-01
    23   -4.640529293839e-16
    24   -3.755170764089e-16
    25   -2.922503830102e-20
    26    4.528568701514e-17
    27   -2.321289730078e-16
    28    1.535789382279e-16
    29    4.614193532542e-20
    30    1.091681113636e-16
Sym=X
Ene= 2.068160
Spin=Alpha
Occup=0
     1    3.968964667458e-17
     2    3.490370560806e-16
     3   -1.750781432967e-16
     4    1.724761382621e-16
     5    1.504812124086e-17
     6   -1.780653780257e-16
     7    8.440417036524e-17
     8   -1.077414764278e-16
     9    5.747786037153e-16
    10   -6.023443429739e-16
    11    7.048332848067e-17
    12   -1.984307142329e-16
    13    4.220364018431e-16
    14    5.068391046486e-17
    15   -1.469501922740e-01
    16   -3.359368760728e-16
    17    6.078319017409e-17
    18   -9.819308396808e-17
    19    4.477754972365e-16
    20    1.078780486748e+00
    21    1.315289862895e-15
    22    3.736262330339e-17
    23    1.020751016608e-17
    24   -2.965375716658e-17
    25    8.423735614973e-19
    26   -3.388139707377e-17
    27   -3.453533539399e-17
    28   -3.384759708156e-16
    29    1.222762204621e-18
    30    8.373933181645e-17
Sym=X
Ene= 2.068160
Spin=Alpha
Occup=0
     1   -3.494347300284e-16
     2    2.614996173269e-16
     3    2.262758230912e-16
     4   -3.195133660215e-16
     5   -4.856880956379e-19
     6   -5.006503528469e-16
     7   -9.930343020019e-17
     8    3.806225585637e-18
     9    4.169905493626e-15
    10    2.717317211451e-15
    11   -2.479414068108e-18
    12   -3.271160780916e-15
    13   -1.821794573570e-15
    14    7.506473741203e-16
    15   -1.335139212901e-16
    16   -1.469501922786e-01
    17    3.672635663796e-16
    18    1.010095788587e-16
    19   -6.732683732898e-17
    20   -5.429689196611e-16
    21    1.078780486751e+00
    22   -1.619028833898e-16
    23   -1.934964082511e-16
    24    3.940262470359e-16
    25    4.210872944086e-20
    26   -8.594634446019e-17
    27    5.121113679174e-16
    28   -1.544920555280e-16
    29   -5.100267482458e-20
    30   -2.407317036615e-16
Sym=X
Ene= 2.068160
Spin=Alpha
Occup=0
     1    3.741307145357e-16
     2   -4.579504056492e-16
     3    3.456324758432e-16
     4   -1.770704736362e-16
     5   -7.622721474319e-18
     6    4.260026300057e-16
     7   -3.935265287869e-16
     8    4.537545625717e-17
     9   -3.169613641264e-15
    10    2.330315965047e-15
    11   -2.542955084628e-17
    12    2.268719773882e-15
    13   -1.234286010392e-15
    14    5.350078735238e-16
    15    7.011202702120e-17
    16   -6.525172643994e-18
    17   -5.869880289481e-16
    18   -1.469501922967e-01
    19    1.302685850900e-16
    20    2.771959852644e-16
    21   -4.763077268107e-16
    22    7.307187588082e-15
    23    1.078780486759e+00
    24    1.762700190545e-17
    25   -6.611727202910e-20
    26    9.545196867983e-17
    27    1.222761849166e-17
    28    2.848549782074e-16
    29   -1.740270056286e-19
    30   -2.076737959064e-16
Sym=X
Ene= 2.068160
Spin=Alpha
Occup=0
     1   -2.339408417322e-12
     2   -2.301962621028e-10
     3    3.479020304087e-10
     4   -1.166438459652e-10
     5    7.382147457426e-18
     6   -4.794170416615e-16
     7   -5.253174547530e-16
     8   -6.304378778540e-17
     9   -3.496847348837e-16
    10    3.143761505811e-15
    11    4.819553464671e-17
    12    1.351772554459e-15
    13   -2.120937174447e-15
    14   -1.394846622028e-02
    15    2.914438061130e-16
    16   -2.771152027842e-17
    17   -1.462867024244e-01
    18    1.121499920659e-15
    19    1.023975058724e-01
    20    9.848371154905e-17
    21    1.636680119063e-16
    22    1.073909721254e+00
    23   -7.603922012944e-15
    24    3.908312836817e-17
    25    8.488091382819e-19
    26    8.137835024068e-17
    27    1.418077538810e-16
    28   -5.951656481244e-16
    29   -4.695922898481e-19
    30   -3.313984432493e-16
Sym=X
Ene= 2.350202
Spin=Alpha
Occup=0
     1    5.247135556102e-17
     2   -1.242913151821e-15
     3    1.753852074379e-15
     4   -8.114735398154e-16
     5    5.190107034028e-17
     6   -4.456910020929e-17
     7   -2.254216431028e-01
     8    1.574716834658e-16
     9   -2.492426211031e-17
    10    1.646048826059e+00
    11   -4.952220477770e-16
    12    3.456526523134e-16
    13   -9.800322795355e-01
    14    7.439262430160e-16
    15    6.309705897538e-17
    16    3.888045279109e-16
    17    2.669744214488e-16
    18    1.374184582109e-16
    19   -5.790062770162e-15
    20    3.657008739971e-16
    21   -2.296721841195e-15
    22   -1.758856749059e-15
    23   -1.453754248023e-15
    24   -3.260528090917e-11
    25    2.792385083209e-17
    26    1.575078315515e-18
    27   -4.677048004672e-12
    28   -1.261138341533e-16
    29   -2.540527523060e-18
    30   -1.769209529353e-16
Sym=X
Ene= 2.350202
Spin=Alpha
Occup=0
     1    2.342283269903e-17
     2   -5.105426439130e-16
     3    7.389625371935e-16
     4   -3.556324136932e-16
     5   -2.254216431442e-01
     6   -2.863605821744e-17
     7   -5.545577645233e-18
     8    1.646048826064e+00
     9    2.356681285288e-16
    10   -4.649512078245e-17
    11   -9.800322793484e-01
    12   -1.765012990327e-16
    13   -2.257681617612e-17
    14    2.292372636197e-18
    15    9.914121555607e-17
    16    2.879953660358e-17
    17    9.103320515040e-19
    18   -2.363785201924e-16
    19    3.924516004387e-18
    20    2.753716893529e-17
    21   -1.658337977387e-17
    22    3.320613037860e-17
    23    8.738687631439e-17
    24    2.429880750553e-16
    25   -2.514359561848e-11
    26    3.102130367904e-16
    27    5.227645578394e-16
    28   -8.272247743455e-17
    29   -5.727953795358e-12
    30   -5.506928534195e-18
Sym=X
Ene= 2.350202
Spin=Alpha
Occup=0
     1   -2.030685900591e-17
     2   -1.186517319001e-16
     3    2.104052246915e-16
     4   -1.108511592612e-16
     5   -9.666893625598e-18
     6   -2.254216431546e-01
     7    3.102150437316e-16
     8    1.328297201878e-16
     9    1.646048826065e+00
    10   -1.969978406747e-16
    11   -4.987767674759e-17
    12   -9.800322793016e-01
    13    2.116940740678e-16
    14    5.906132850551e-16
    15    9.541902350832e-17
    16    2.152221647526e-16
    17   -1.848292715737e-16
    18   -1.540013091714e-16
    19   -4.069687017702e-15
    20   -3.960993766219e-16
    21   -3.146100755000e-15
    22    9.386066859390e-16
    23    2.186455942153e-15
    24   -6.000057342369e-19
    25   -3.054767281034e-17
    26   -2.810111389986e-11
    27   -3.559506556396e-16
    28   -3.102684662503e-16
    29    9.465008480629e-19
    30   -5.728415867936e-12
Sym=X
Ene= 6.055038
Spin=Alpha
Occup=0
     1    1.391984881676e-16
     2   -1.953943969618e-16
     3    1.343175355948e-16
     4    2.859216638227e-18
     5    1.853410703716e-15
     6   -6.286166594006e-16
     7    6.425788052727e-11
     8   -2.049325925993e-15
     9    2.251206408159e-16
    10   -1.979207077630e-11
    11    1.032064324990e-15
    12    2.511216832904e-17
    13    2.242628652902e-11
    14    3.267218817146e-16
    15   -1.157228476765e-15
    16   -1.573387541533e-15
    17   -6.126700095114e-16
    18   -2.186208099380e-15
    19    6.014004115000e-16
    20    7.154485204579e-16
    21   -2.131443391938e-16
    22   -3.753383954519e-17
    23    1.121716893291e-15
    24    9.794280610543e-01
    25   -2.498435486276e-15
    26    2.372959413601e-15
    27   -2.017936401858e-01
    28    9.666170587477e-16
    29    8.567738261477e-17
    30    6.539771979161e-17
Sym=X
Ene= 6.055038
Spin=Alpha
Occup=0
     1   -3.062767423206e-21
     2    2.470098770738e-21
     3    1.595568329332e-21
     4   -3.590723036011e-21
     5    5.147772886482e-11
     6    1.130886023603e-16
     7    1.736031527392e-16
     8   -1.585220235677e-11
     9    5.833459172952e-18
    10   -2.499985944454e-16
    11    1.796494009713e-11
    12   -1.796741153492e-17
    13    3.980348459147e-17
    14   -2.316512416510e-20
    15   -7.913665560940e-17
    16   -2.953254920311e-17
    17    1.326026849867e-17
    18   -6.318375403376e-16
    19   -2.035573701245e-19
    20   -5.152797848416e-18
    21    1.520456541434e-17
    22    6.333760854059e-18
    23    3.108128239174e-16
    24    2.619893234648e-15
    25    9.987755523657e-01
    26   -3.976037259699e-15
    27   -1.126899409291e-15
    28   -3.440234481323e-16
    29   -4.947116328350e-02
    30    4.204697192769e-17
Sym=X
Ene= 6.055038
Spin=Alpha
Occup=0
     1   -1.515674040986e-16
     2    2.084088582745e-16
     3   -1.458212323067e-16
     4   -2.809029811666e-17
     5   -4.645534224239e-16
     6    5.747297408741e-11
     7   -1.049631676891e-15
     8   -6.225840145214e-16
     9   -1.770237478672e-11
    10    9.536940170728e-16
    11    7.830156005448e-16
    12    2.005853539982e-11
    13   -3.848644916701e-16
    14   -5.110254828871e-17
    15    3.972867236240e-16
    16    6.203369495743e-16
    17    2.591525507717e-16
    18    6.126423388228e-16
    19   -2.793271386415e-16
    20   -1.750928681207e-16
    21   -1.592901160659e-16
    22   -2.298587317616e-17
    23   -4.283550686872e-16
    24   -1.643020300975e-15
    25    2.455242089995e-15
    26    9.982943673986e-01
    27    1.667807873144e-17
    28    9.729425417723e-16
    29   -1.462858390529e-16
    30   -5.838112726138e-02
Sym=X
Ene= 6.055038
Spin=Alpha
Occup=0
     1   -4.729367360944e-16
     2    6.374489901521e-16
     3   -3.600923619099e-16
     4    9.297106648310e-17
     5    2.672956571662e-16
     6    9.718523620922e-16
     7   -5.904057460163e-16
     8    5.371537748660e-17
     9   -2.244078053406e-16
    10    9.670350873292e-16
    11   -7.293132525845e-17
    12    2.873906264461e-18
    13   -2.513020933765e-16
    14    8.461742463764e-16
    15   -8.057506306276e-16
    16   -1.737459206660e-17
    17    4.303633177113e-16
    18   -6.666066009111e-16
    19   -4.172732590215e-16
    20    9.258718278582e-16
    21    3.141820420117e-16
    22    1.045626646629e-15
    23    1.781862026498e-17
    24    3.442003084463e-17
    25   -9.990344820206e-17
    26   -2.880390279951e-16
    27    3.389977473809e-15
    28    1.000000000000e+00
    29   -6.572937155096e-18
    30   -1.738435495505e-17
Sym=X
Ene= 6.055038
Spin=Alpha
Occup=0
     1   -5.357669168440e-17
     2    4.133549137692e-17
     3    5.620553471047e-18
     4   -3.135857267444e-17
     5   -8.037515877038e-16
     6    6.566050880718e-16
     7    2.314025881851e-11
     8   -1.176364756883e-15
     9   -4.256001172235e-16
    10   -7.127304662826e-12
    11    1.430101006586e-15
    12    9.420353409274e-17
    13    8.075994505764e-12
    14    1.010713104357e-15
    15    1.488862426455e-15
    16   -1.303178699711e-15
    17    1.661616074982e-15
    18    3.474054873960e-17
    19   -4.072215301892e-16
    20   -5.921976026205e-16
    21   -3.654211415814e-16
    22   -1.311856051303e-15
    23    1.837897681829e-16
    24    2.017936401858e-01
    25    3.665050533384e-16
    26   -6.290164976726e-17
    27    9.794280610543e-01
    28   -3.460351948400e-15
    29   -8.343631456304e-17
    30    6.539240556976e-17
Sym=X
Ene= 6.055038
Spin=Alpha
Occup=0
     1   -3.753488611239e-20
     2    4.006425202212e-20
     3   -1.856913361914e-20
     4    3.939478626061e-21
     5    1.444024864369e-11
     6   -1.701050757652e-18
     7   -9.824401693880e-18
     8   -4.446979021830e-12
     9    3.998404106656e-18
    10    1.322727136469e-17
    11    5.039977399443e-12
    12   -2.439958874837e-18
    13   -4.644206710770e-18
    14   -2.866135260601e-21
    15   -3.943794286444e-18
    16   -1.599342549095e-18
    17    5.742686057944e-19
    18   -3.355783818214e-17
    19   -1.282388461186e-20
    20   -4.001501159615e-18
    21    8.705012996354e-19
    22    1.743868394712e-18
    23    1.667200510153e-17
    24    4.785122053100e-17
    25    4.947116328350e-02
    26   -1.507496994731e-16
    27   -6.175858831752e-17
    28    1.331372154052e-16
    29    9.987755523657e-01
    30   -1.916097629768e-15
Sym=X
Ene= 6.055038
Spin=Alpha
Occup=0
     1   -7.824849113730e-17
     2   -6.230336369325e-17
     3    1.584059346833e-16
     4   -1.595179513801e-16
     5    1.360474520718e-17
     6    1.525644872982e-11
     7    2.355695294903e-15
     8   -5.930778119142e-17
     9   -4.698010802451e-12
    10   -1.636069809961e-15
    11    8.663686696459e-17
    12    5.324555666446e-12
    13    7.563063899547e-16
    14   -1.584544388919e-16
    15   -6.622364408147e-16
    16    2.434743189147e-16
    17   -1.421568149733e-15
    18    6.546725152188e-16
    19    1.776496462036e-16
    20    3.795237221876e-16
    21    8.324459362534e-16
    22    1.212794919495e-15
    23    2.708341259505e-16
    24    4.512347797931e-16
    25   -3.487717030764e-16
    26    5.838112726138e-02
    27    6.665442022380e-16
    28    6.462881405321e-17
    29    1.952884364477e-15
    30    9.982943673986e-01
Sym=X
Ene= 7.297110
Spin=Alpha
Occup=0
     1    1.630991121513e+00
     2   -2.137557858300e+00
     3    1.428868813850e+00
     4   -4.937058055856e-01
     5    2.994211852534e-15
     6    2.212267299040e-15
     7   -2.049353954119e-15
     8   -2.789258946748e-15
     9   -2.028236414327e-15
    10    1.906337793533e-15
    11    9.776526097494e-16
    12    7.195827971592e-16
    13   -6.133964360218e-16
    14    1.264503622334e-10
    15    1.412685526998e-15
    16    1.013036350985e-15
    17    2.433604659223e-11
    18   -1.888502507652e-16
    19   -5.518609810271e-11
    20   -7.387978576546e-16
    21   -1.628021796300e-16
    22   -1.062098472301e-11
    23   -1.181171197868e-16
    24   -4.489071917556e-17
    25   -3.593316220242e-19
    26    5.713712837574e-17
    27    3.779572462051e-17
    28    2.765397052666e-16
    29    2.288415794448e-20
    30    3.479974032059e-17
Sym=X
Ene= 7.763352
Spin=Alpha
Occup=0
     1    2.286491583744e-15
     2   -3.298090411412e-15
     3    2.014912945667e-15
     4   -6.560605453323e-16
     5    8.045999847286e-16
     6   -3.473614354054e-16
     7    1.639672800100e+00
     8   -6.921453495523e-16
     9   -1.150355445666e-16
    10   -1.517637110919e+00
    11    2.017434486408e-16
    12   -2.070148523090e-18
    13    5.393927053308e-01
    14    1.251293630393e-14
    15    3.988666488588e-16
    16   -3.861805588791e-16
    17   -2.622980576548e-15
    18    6.250662761227e-15
    19   -5.921647956199e-15
    20   -2.425660165361e-16
    21    2.510605944423e-16
    22    1.273408822194e-15
    23   -2.659948693439e-15
    24   -4.450498185981e-11
    25   -1.290313859879e-16
    26    5.284846682063e-16
    27   -6.383837371254e-12
    28    4.144945586911e-16
    29    1.350044600473e-17
    30   -1.837105745789e-15
Sym=X
Ene= 7.763352
Spin=Alpha
Occup=0
     1   -2.976666027068e-15
     2    3.864886264086e-15
     3   -2.550000001390e-15
     4    8.706810277203e-16
     5    1.639672800091e+00
     6   -1.687707179832e-15
     7   -8.049159280180e-16
     8   -1.517637110862e+00
     9    1.534451624365e-15
    10    6.320555617247e-16
    11    5.393927052847e-01
    12   -5.229699189766e-16
    13   -2.259999311514e-16
    14   -3.206117635629e-16
    15   -1.420924494099e-14
    16   -3.937281715327e-15
    17   -1.261183532677e-16
    18    5.128269051792e-15
    19    1.563267006351e-16
    20    6.891200007293e-15
    21    1.918951002822e-15
    22    7.447113415716e-17
    23   -2.495332404941e-15
    24   -1.199355900137e-15
    25   -3.431687682378e-11
    26    9.013915907142e-16
    27    1.216193436324e-15
    28   -2.448278263029e-16
    29   -7.818087430711e-12
    30   -3.374897627941e-17
Sym=X
Ene= 7.763352
Spin=Alpha
Occup=0
     1   -2.369669801525e-15
     2    3.419000665702e-15
     3   -2.176665367217e-15
     4    7.328886284438e-16
     5    1.216901840588e-15
     6    1.639672800089e+00
     7    6.209361367096e-16
     8   -1.153639337786e-15
     9   -1.517637110847e+00
    10   -1.613546942543e-16
    11    4.148913257959e-16
    12    5.393927052732e-01
    13    1.339294614881e-16
    14   -5.804359636132e-15
    15   -7.178751204880e-16
    16   -8.531665298022e-15
    17    6.257571241598e-15
    18    2.080222741877e-15
    19    2.839207522889e-15
    20    4.773843868897e-16
    21    3.646144070191e-15
    22   -1.775002439582e-15
    23   -9.212059529802e-16
    24    3.282134649599e-16
    25   -9.947192986301e-17
    26   -3.835636967315e-11
    27   -5.145049818736e-16
    28   -7.704092821294e-16
    29    6.008882542384e-18
    30   -7.817034934676e-12
Sym=X
Ene= 8.120893
Spin=Alpha
Occup=0
     1   -1.651918811980e-10
     2    2.618320374366e-10
     3   -1.979629643682e-10
     4    5.777988901551e-11
     5    4.120195560611e-16
     6    8.794490535278e-15
     7   -1.809057113367e-14
     8   -3.841593092435e-16
     9   -8.794661430926e-15
    10    1.734212335355e-14
    11    1.348297806083e-16
    12    3.231746105415e-15
    13   -6.866276521319e-15
    14    1.218281339090e+00
    15    6.005548299328e-15
    16    2.335947461938e-15
    17   -1.161633685825e-01
    18   -2.952790735446e-16
    19   -5.935715046476e-01
    20   -3.226585665317e-15
    21   -1.904756869809e-15
    22    5.659716131414e-02
    23   -2.340360503593e-16
    24   -6.737055412543e-16
    25    1.155302460742e-18
    26    7.153939589538e-17
    27   -8.628197699620e-16
    28   -7.351977542291e-16
    29    1.447461161505e-20
    30   -4.724138545558e-17
Sym=X
Ene= 8.120893
Spin=Alpha
Occup=0
     1   -2.237481898635e-15
     2    2.793943095863e-15
     3   -1.690947573101e-15
     4    4.949031856406e-16
     5    1.905294800545e-14
     6    1.021074441660e-15
     7   -4.400640801995e-16
     8   -1.776429925433e-14
     9   -7.905353190746e-16
    10   -5.817281999008e-17
    11    6.236211375722e-15
    12   -2.935504084922e-17
    13    1.592742534876e-17
    14   -5.828613281042e-15
    15    1.223806908533e+00
    16   -1.921142453236e-15
    17    3.233906147564e-16
    18    1.593116044892e-16
    19    2.326318391394e-15
    20   -5.962636747223e-01
    21    1.503019318798e-15
    22   -5.861243531269e-16
    23   -2.342936846145e-16
    24    9.228652730440e-16
    25    6.660684529563e-17
    26   -4.098735286694e-16
    27   -1.790755001814e-15
    28    8.581567247235e-16
    29    5.587196143995e-19
    30    7.183138773910e-16
Sym=X
Ene= 8.120893
Spin=Alpha
Occup=0
     1   -1.621686588790e-15
     2    2.029364465423e-15
     3   -1.307566822208e-15
     4    4.562099816222e-16
     5    5.277033638495e-15
     6    1.208969865088e-14
     7    5.985589472767e-16
     8   -4.919346371011e-15
     9   -1.065715146706e-14
    10   -8.481687455779e-16
    11    1.727800542498e-15
    12    3.474769357254e-15
    13    5.383024285237e-16
    14   -2.416856049060e-15
    15    8.177873542441e-16
    16    1.223806908532e+00
    17    6.436095146417e-16
    18   -1.595978170720e-16
    19    4.451192019139e-16
    20    1.327747044799e-16
    21   -5.962636747183e-01
    22   -2.203789146343e-17
    23    1.217922204560e-16
    24    2.069717180851e-15
    25    2.285222195466e-17
    26   -6.788725596702e-16
    27    1.069032564455e-15
    28    4.186956237625e-17
    29    1.054443026223e-19
    30   -2.642863852211e-16
Sym=X
Ene= 8.120893
Spin=Alpha
Occup=0
     1    3.861614730138e-16
     2   -4.793369722608e-16
     3    2.975333842544e-16
     4   -9.330040633673e-17
     5   -6.931710918716e-15
     6   -2.855737978837e-15
     7   -8.915458276104e-15
     8    6.520731397949e-15
     9    2.043406722402e-15
    10    8.545490289567e-15
    11   -2.214038939549e-15
    12   -7.260999784046e-16
    13   -3.272098131336e-15
    14   -4.181703404773e-15
    15   -4.556328575959e-16
    16   -4.760578581207e-16
    17   -4.471160969102e-14
    18    1.223806908530e+00
    19    1.854015361103e-15
    20   -3.747845096309e-16
    21    2.486147664613e-17
    22    2.182875045254e-14
    23   -5.962636747024e-01
    24    2.323525474574e-15
    25    4.898538418049e-16
    26   -6.907687235890e-16
    27   -5.466960227173e-16
    28    1.272616836196e-15
    29    1.825131079211e-18
    30   -8.825147646563e-16
Sym=X
Ene= 8.120893
Spin=Alpha
Occup=0
     1   -4.843197253166e-11
     2    7.676558217069e-11
     3   -5.804001321981e-11
     4    1.694040281214e-11
     5    2.079342635833e-16
     6   -8.486634793705e-15
     7    1.787457526385e-15
     8   -1.952689392388e-16
     9    8.222658488366e-15
    10   -1.414891302125e-15
    11    6.672293997799e-17
    12   -2.964210336637e-15
    13    2.566308318448e-16
    14    1.161633685822e-01
    15   -2.091188773419e-16
    16    9.221827484464e-17
    17    1.218281339086e+00
    18    4.523702683749e-14
    19   -5.659716131183e-02
    20   -6.462921099651e-19
    21   -2.773001647916e-16
    22   -5.935715046233e-01
    23   -2.230253471414e-14
    24    4.665798049935e-16
    25   -1.159688984554e-17
    26   -1.838046493858e-16
    27   -1.497742354432e-15
    28   -8.063845090246e-16
    29   -1.314304865773e-19
    30    1.483532975179e-15
Sym=X
Ene= 0.048258
Spin=Beta 
Occup=0
     1    3.871020321712e-02
     2    1.657696088265e-01
     3   -9.276344575212e-02
     4    9.812536375320e-01
     5   -1.255325129885e-18
     6   -1.858873560013e-16
     7    1.383000234301e-16
     8   -9.952421448620e-18
     9    2.055333423565e-16
    10   -5.680259784897e-19
    11   -7.227157590349e-17
    12   -1.764791985138e-16
    13   -2.717916051330e-15
    14    3.776638683836e-11
    15    1.901357902919e-17
    16    2.910902572980e-17
    17    7.268210869272e-12
    18   -6.989802438605e-20
    19   -1.698063876619e-10
    20   -1.205856235171e-16
    21   -9.257534163496e-17
    22   -3.267958530516e-11
    23   -1.505498269544e-17
    24   -2.941763847418e-17
    25   -2.824346660765e-21
    26   -1.232201150657e-16
    27   -7.988411102771e-18
    28    5.527054377827e-18
    29   -5.457677352591e-23
    30   -5.229110545859e-17
Sym=X
Ene= 0.390589
Spin=Beta 
Occup=0
     1    1.010598853080e-01
     2   -1.052844617792e-01
     3    1.794980370947e+00
     4   -1.524702362307e+00
     5    1.556150912205e-16
     6    6.726859203641e-17
     7    2.648821909437e-16
     8   -3.305305762549e-16
     9   -7.760197068731e-17
    10   -1.524401770671e-15
    11    3.372924877099e-15
    12    2.447109108693e-16
    13    5.842192655445e-15
    14    5.976684281901e-12
    15   -1.211374808574e-16
    16    1.490341468779e-17
    17    1.150334725834e-12
    18    1.107073555679e-16
    19   -6.677696777641e-11
    20    5.528121890198e-17
    21    4.926624793083e-17
    22   -1.285128862772e-11
    23    7.538687997193e-19
    24   -2.194979858753e-17
    25    2.364596740720e-20
    26   -9.078025491723e-17
    27    2.320481400229e-17
    28    3.913821310948e-17
    29    9.711205750648e-22
    30    2.042058440646e-16
Sym=X
Ene= 0.607678
Spin=Beta 
Occup=0
     1    2.798507893967e-16
     2   -5.960415690897e-17
     3   -7.631343624191e-15
     4    8.601160989343e-15