 
Create Ne   file=QZ4P-Ne
XC
  HartreeFock
End
  HartreeFock

 *******************************************************************************
 *                                                                             *
 *  -------------------------------------                                      *
 *   Amsterdam Density Functional  (ADF)         2018                          *
 *  -------------------------------------                                      *
 *                                               r70630 2018-11-24             *
 *                                                                             *
 *                                                                             *
 *                              =================                              *
 *                              |               |                              *
 *                              |     A D F     |                              *
 *                              |               |                              *
 *                              =================                              *
 *                                                                             *
 *                                                                             *
 *   Online information and documentation:  https://www.scm.com/support/       *
 *   E-mail:  support@scm.com   info@scm.com                                   *
 *                                                                             *
 *   Scientific publications using ADF results must be properly referenced     *
 *   See the User Manuals (or the web site) for recommended citations          *
 *   The terms and conditions of the End User License Agreement apply to       *
 *   the use of ADF, https://www.scm.com/license-terms/                        *
 *                                                                             *
 **********************  x86_64_linux_intel / intelmpi  ************************
 
 Licensed to: Mr. Vladimir Konjkov / Florida Institute of Technology / Melbourne / Florida / USA
 SCM User ID: u21173
  
 ADF 2018  RunTime: Mar23-2019 13:46:25  Nodes: 1  Procs: 1

 Temporary files are created in /tmp/kid_0.253630134

 Neon (QZ, all electron, 8S 5P 2D 2F)



 ===========================
 A T T A C H E D   F I L E S
 ===========================
  
 CREATE - Data File:    QZ4P-Ne
                        Neon (QZ, all electron, 8S 5P 2D 2F)



 ===============================
 M O D E L   P A R A M E T E R S
 ===============================
  
 DENSITY FUNCTIONAL POTENTIAL (scf)
    Hybrid:                            HARTREEFOCK                             == Not Default ==

 SPIN  (restricted / unrestr.)
    Molecule:                          Restricted                               

 OTHER ASPECTS
    Relativistic Corrections:          ---                                      

    Nuclear Charge Density Model:      Point Charge Nuclei                      
    Core Treatment:                    Frozen Orbital(s)                        

    Hyperfine or Zeeman Interaction:   ---                                      



 =====================================
 S Y M M E T R Y ,   E L E C T R O N S
 =====================================
  
 Symmetry: ATOM

 Irreducible Representations, including subspecies
 -------------------------------------------------
 S
 P:x  P:y  P:z
 D:z2  D:x2-y2  D:xy  D:xz  D:yz
 F:z3  F:z  F:xyz  F:z2x  F:z2y  F:x  F:y


 Configuration of Valence Electrons
 ==================================

          Occupation Numbers
          -------------------------------------------------
 S        2*2
 P        6
 D        0
 F        0
          -------------------------------------------------

 Total:   10

 Net Charge: 0 (Nuclei minus Electrons)

 Preset values for MO occupations will be applied through SCF cycle no. 1000000
 Thereafter, the program will assign electrons to MOs that are spatially
 similar to the occupied MOs in a "reference" cycle ("KeepOrbitals").
 The reference cycle is always the PREVIOUS cycle: it will evolve with
 the SCF procedure.



 ================================
 (Slater-type)  F U N C T I O N S  ***  (Basis and Fit)  ***
 ================================
  

 Atom Type    1  (Ne)
 ==============

 Valence Basis Sets:  17
 -----------------------
   1 S   19.650000
   1 S   11.000000
   1 S    8.450000
   2 S    9.300000
   2 S    4.250000
   2 S    2.700000
   2 S    1.900000
   2 S    0.950000
   2 P    7.100000
   2 P    4.050000
   2 P    2.200000
   2 P    1.300000
   2 P    0.700000
   3 D    2.500000
   3 D    1.500000
   4 F    4.000000
   4 F    2.000000

 Charge Fitting Sets (for the computation of the Coulomb Potential):  37
 -----------------------------------------------------------------------
   1 S   39.300000
   1 S   29.400000
   1 S   22.000000
   1 S   14.050000
   2 S   16.570000
   2 S   11.710000
   2 S    8.280000
   2 S    5.850000
   3 S    6.060000
   3 S    4.520000
   3 S    3.370000
   3 S    2.520000
   3 S    1.880000
   3 S    1.400000
   2 P   18.100000
   2 P   11.700000
   2 P    7.570000
   3 P    7.200000
   3 P    4.980000
   3 P    3.450000
   3 P    2.380000
   3 P    1.650000
   3 D   14.200000
   3 D    9.250000
   3 D    6.020000
   4 D    5.220000
   4 D    3.570000
   4 D    2.450000
   4 F   15.000000
   4 F    9.330000
   4 F    5.800000
   5 F    4.530000
   5 F    2.950000
   5 G   11.100000
   5 G    6.930000
   5 G    4.330000
   5 G    2.700000


 BAS: List of all Elementary Cartesian Basis Functions
 =====================================================

 The numbering in the list below (to the right of the function characteristics) is referred
 to in print-outs of MO eigenvectors and Mulliken populations in the BAS representation
 (as contrasted to the SFO representation).

 Notes:
 1. The functions are characterized by a polynomial prefactor (powers of x,y,z and r) and
    an exponential decay factor alpha.
 2. Since the basis sets are specific for an atom TYPE, the individual functions occur on
    all atoms of that type.
 3. The word 'Core' in the left margin signals that it is a Core Function (CF) : not a
    degree of freedom in the valence set, but only used to ensure orthogonalization of
    the other valence basis functions on the frozen Core Orbitals.


 (power of) X  Y  Z  R     Alpha  on Atom
            ==========     =====     ==========

 Ne                                   1
                                  ---------------------------------------------------------------------------
            0  0  0  0    19.650      1
            0  0  0  0    11.000      2
            0  0  0  0     8.450      3
            0  0  0  1     9.300      4
            0  0  0  1     4.250      5
            0  0  0  1     2.700      6
            0  0  0  1     1.900      7
            0  0  0  1     0.950      8
            1  0  0  0     7.100      9
            0  1  0  0     7.100     10
            0  0  1  0     7.100     11
            1  0  0  0     4.050     12
            0  1  0  0     4.050     13
            0  0  1  0     4.050     14
            1  0  0  0     2.200     15
            0  1  0  0     2.200     16
            0  0  1  0     2.200     17
            1  0  0  0     1.300     18
            0  1  0  0     1.300     19
            0  0  1  0     1.300     20
            1  0  0  0     0.700     21
            0  1  0  0     0.700     22
            0  0  1  0     0.700     23
            2  0  0  0     2.500     24
            1  1  0  0     2.500     25
            1  0  1  0     2.500     26
            0  2  0  0     2.500     27
            0  1  1  0     2.500     28
            0  0  2  0     2.500     29
            2  0  0  0     1.500     30
            1  1  0  0     1.500     31
            1  0  1  0     1.500     32
            0  2  0  0     1.500     33
            0  1  1  0     1.500     34
            0  0  2  0     1.500     35
            3  0  0  0     4.000     36
            2  1  0  0     4.000     37
            2  0  1  0     4.000     38
            1  2  0  0     4.000     39
            1  1  1  0     4.000     40
            1  0  2  0     4.000     41
            0  3  0  0     4.000     42
            0  2  1  0     4.000     43
            0  1  2  0     4.000     44
            0  0  3  0     4.000     45
            3  0  0  0     2.000     46
            2  1  0  0     2.000     47
            2  0  1  0     2.000     48
            1  2  0  0     2.000     49
            1  1  1  0     2.000     50
            1  0  2  0     2.000     51
            0  3  0  0     2.000     52
            0  2  1  0     2.000     53
            0  1  2  0     2.000     54
            0  0  3  0     2.000     55

 Total number of charge fitting functions (nprimf)       184
 Total number of Cartesian basis functions (naos)         55
 Total number of Cartesian core functions  (ncos)          0



 BAS: List of all Elementary Cartesian Basis Functions
 =====================================================

 The numbering in the list below (to the right of the function characteristics) is referred
 to in print-outs of MO eigenvectors and Mulliken populations in the BAS representation
 (as contrasted to the SFO representation).

 Notes:
 1. The functions are characterized by a polynomial prefactor (powers of x,y,z and r) and
    an exponential decay factor alpha.
 2. Since the basis sets are specific for an atom TYPE, the individual functions occur on
    all atoms of that type.
 3. The word 'Core' in the left margin signals that it is a Core Function (CF) : not a
    degree of freedom in the valence set, but only used to ensure orthogonalization of
    the other valence basis functions on the frozen Core Orbitals.


 (power of) X  Y  Z  R     Alpha  on Atom
            ==========     =====     ==========

 Ne                                   1
                                  ---------------------------------------------------------------------------
            0  0  0  0    19.650      1
            0  0  0  0    11.000      2
            0  0  0  0     8.450      3
            0  0  0  1     9.300      4
            0  0  0  1     4.250      5
            0  0  0  1     2.700      6
            0  0  0  1     1.900      7
            0  0  0  1     0.950      8
            1  0  0  0     7.100      9
            0  1  0  0     7.100     10
            0  0  1  0     7.100     11
            1  0  0  0     4.050     12
            0  1  0  0     4.050     13
            0  0  1  0     4.050     14
            1  0  0  0     2.200     15
            0  1  0  0     2.200     16
            0  0  1  0     2.200     17
            1  0  0  0     1.300     18
            0  1  0  0     1.300     19
            0  0  1  0     1.300     20
            1  0  0  0     0.700     21
            0  1  0  0     0.700     22
            0  0  1  0     0.700     23
            2  0  0  0     2.500     24
            1  1  0  0     2.500     25
            1  0  1  0     2.500     26
            0  2  0  0     2.500     27
            0  1  1  0     2.500     28
            0  0  2  0     2.500     29
            2  0  0  0     1.500     30
            1  1  0  0     1.500     31
            1  0  1  0     1.500     32
            0  2  0  0     1.500     33
            0  1  1  0     1.500     34
            0  0  2  0     1.500     35
            3  0  0  0     4.000     36
            2  1  0  0     4.000     37
            2  0  1  0     4.000     38
            1  2  0  0     4.000     39
            1  1  1  0     4.000     40
            1  0  2  0     4.000     41
            0  3  0  0     4.000     42
            0  2  1  0     4.000     43
            0  1  2  0     4.000     44
            0  0  3  0     4.000     45
            3  0  0  0     2.000     46
            2  1  0  0     2.000     47
            2  0  1  0     2.000     48
            1  2  0  0     2.000     49
            1  1  1  0     2.000     50
            1  0  2  0     2.000     51
            0  3  0  0     2.000     52
            0  2  1  0     2.000     53
            0  1  2  0     2.000     54
            0  0  3  0     2.000     55
1
 ***************************************************************************************************



                                              ***********************
                                              *  T E C H N I C A L  *
                                              ***********************
  



 =============================================================
 P A R A L L E L I Z A T I O N  and  V E C T O R I Z A T I O N
 =============================================================
  
 Nr of parallel processes:                                1
 Maximum vector length in NumInt loops:                 128

 IO buffersize (Mb):                                     64.000000



 =====================
 S C F   U P D A T E S
 =====================
  
 Max. nr. of cycles:                               300
 Convergence criterion:                              0.0000000100
   secondary criterion:                              0.0000000100

 Mix parameter (when DIIS does not apply):           0.2000000000
 Special mix parameter for the first cycle:          1.0000000000
 Mixed ADIIS+DIIS will be used
    Max number of expansion vectors:                10
    Pure ADIIS when Max([F,P]) is above              0.1000000000
    Pure DIIS when Max([F,P]) is below               0.0010000000
 Automatic ElectronSmearing (in case of problematic SCF convergence) disabled



 =================
 P R E C I S I O N  ***  (General: NumInt, NeglectFunctionTails, ...)  ***
 =================
  

 NumInt:           Target precision:                12.0000000000
 -------           Initial precision:               10.0000000000
                   Min. precision (optimization):   10.0000000000

 Neglect Functions:          Basis functions:        0.1000000000E-13
 ------------------          Fit functions:          0.1000000000E-13



 ===========================
 L I N E A R   S C A L I N G
 ===========================
  

 Cut-off radii density fit:                        0.1000000000E-97
 Overlap cut-off criterion AO matrix elements:     0.1000000000E-97
 Cut-offs for Coulomb potential and fitted density:0.1000000000E-97
 Cut-off criterion for Coulomb multipole terms:    0.1000000000E-97
 Progressive Convergence parameter:                 0.000000000    
1
 ***************************************************************************************************



                                            ***************************
                                            *  C O M P U T A T I O N  *
                                            ***************************
  

 Number of elements of the density matrix on this node (used, total):      1540      1540



 ===========================================
 Numerical Integration : Fuzzy Cells (Becke)
 ===========================================
  
 Becke grid quality: VERYGOOD       
  
 Lebedev angular grid order:             min:  13 max:  41
 Nr. of radial points:                   min:  89 max:  89

 Total nr. of points:         89
 Nr. of blocks:                1
 Block length:                89
 Nr. of dummy points:          0


 Test of Precision of the Numerical Integration Grid
 ===================================================

 Integral of the Total Core Density:                   0.00000000000000



 ========================
 Density Fitting (zlmFit)
 ========================
  
 ZlmFit Fit Quality: VERYGOOD       
  
 Max L-expansion:                        min:   0 max:   0
 Nr. of radial interpolation points:     min: 210 max: 210



 ======================
 RI Hartree-Fock Scheme
 ======================
  
 Fit Set Quality     : NORMAL
 Integration Quality : NORMAL
 Threshold Quality   : NORMAL
 Response Quality    : DEFAULT
 Is Range Separated  :  F
 
 RIHartreeFock Dependency: number of modified vectors:           0



 =====
 S C F  ***  ScaSCF  ***
 =====
  

 CYCLE    1
 SCF Error: norm([F,P])=      0.000000000000, max([F,P])=      0.000000000000
 orbitals (Q,E):
 ---------------
 S :1...8            ( 2.00   -50.0000)  ( 2.00   -12.4989)  ( 0.00    -5.5523)  ( 0.00    -3.0795)
                     ( 0.00    -1.9312)  ( 0.00     9.2042)  ( 0.00    80.3349)  ( 0.00   588.0395)
 P :1...5            ( 6.00   -12.4823)  ( 0.00    -5.5359)  ( 0.00    -3.0659)  ( 0.00    -1.7558)
                     ( 0.00     7.2265)
 D :1...2            ( 0.00    -5.3383)  ( 0.00    -2.8695)
 F :1...2            ( 0.00    -3.0624)  ( 0.00    -0.8774)

 CYCLE    2
  SDIIS (wt  0.000):  1.0000  0.0000
 A-DIIS (wt  1.000):  0.0000  1.0000
  DIIS coefficients:  0.0000  1.0000
 SCF Error: norm([F,P])=     18.639711131080, max([F,P])=      5.828226016828
 orbitals (Q,E):
 ---------------
 S :1...3            ( 2.00   -26.0235)  ( 2.00    -0.1763)  ( 0.00     0.2251)
 P :1...2            ( 6.00     0.1289)  ( 0.00     0.5422)
 D :1...1            ( 0.00     0.8121)
 F :1...1            ( 0.00     1.7080)

 CYCLE    3
  SDIIS (wt  0.000):  0.1335  0.8665
 A-DIIS (wt  1.000):  0.5236  0.4764
  DIIS coefficients:  0.5236  0.4764
 SCF Error: norm([F,P])=      5.807254762503, max([F,P])=      4.950606601496
 orbitals (Q,E):
 ---------------
 S :1...3            ( 2.00   -32.9471)  ( 2.00    -2.8524)  ( 0.00    -0.2511)
 P :1...2            ( 6.00    -1.5917)  ( 0.00    -0.1338)
 D :1...1            ( 0.00     0.2221)
 F :1...1            ( 0.00     1.0363)

 CYCLE    4
  SDIIS (wt  0.000): -0.0004  0.0718  0.9285
 A-DIIS (wt  1.000):  0.0000  0.0000  1.0000
  DIIS coefficients:  0.0000  0.0000  1.0000
 SCF Error: norm([F,P])=      1.338003759794, max([F,P])=      0.470045159090
 orbitals (Q,E):
 ---------------
 S :1...3            ( 2.00   -32.0415)  ( 2.00    -1.6358)  ( 0.00     0.1614)
 P :1...2            ( 6.00    -0.5691)  ( 0.00     0.1455)
 D :1...1            ( 0.00     0.7787)
 F :1...1            ( 0.00     1.6719)

 CYCLE    5
  SDIIS (wt  0.000):  0.0157 -0.0183  0.2571  0.7455
 A-DIIS (wt  1.000):  0.0000  0.0000  0.0000  1.0000
  DIIS coefficients:  0.0000  0.0000  0.0000  1.0000
 SCF Error: norm([F,P])=      0.725859890300, max([F,P])=      0.296486063380
 orbitals (Q,E):
 ---------------
 S :1...3            ( 2.00   -33.1630)  ( 2.00    -2.0678)  ( 0.00     0.1436)
 P :1...2            ( 6.00    -0.9811)  ( 0.00     0.1397)
 D :1...1            ( 0.00     0.7405)
 F :1...1            ( 0.00     1.6317)

 CYCLE    6
  SDIIS (wt  0.000): -0.0010 -0.0009  0.0015  0.3343  0.6661
 A-DIIS (wt  1.000):  0.0000  0.0000  0.0000  0.0339  0.9661
  DIIS coefficients:  0.0000  0.0000  0.0000  0.0339  0.9661
 SCF Error: norm([F,P])=      0.378449599567, max([F,P])=      0.149712505037
 orbitals (Q,E):
 ---------------
 S :1...3            ( 2.00   -32.5916)  ( 2.00    -1.8681)  ( 0.00     0.1523)
 P :1...2            ( 6.00    -0.7911)  ( 0.00     0.1429)
 D :1...1            ( 0.00     0.7568)
 F :1...1            ( 0.00     1.6487)

 CYCLE    7
  SDIIS (wt  0.294): -0.0002 -0.0003 -0.0003 -0.0308  0.2887  0.7430
 A-DIIS (wt  0.706):  0.0000  0.0000  0.0000  0.0000  0.0000  1.0000
  DIIS coefficients: -0.0001 -0.0001 -0.0001 -0.0091  0.0849  0.9245
 SCF Error: norm([F,P])=      0.174287662881, max([F,P])=      0.070896150786
 orbitals (Q,E):
 ---------------
 S :1...3            ( 2.00   -32.8385)  ( 2.00    -1.9538)  ( 0.00     0.1489)
 P :1...2            ( 6.00    -0.8726)  ( 0.00     0.1417)
 D :1...1            ( 0.00     0.7501)
 F :1...1            ( 0.00     1.6417)

 CYCLE    8
  SDIIS (wt  0.751):  0.0000  0.0000 -0.0001  0.0053 -0.1103  0.1070  0.9981
 A-DIIS (wt  0.249):  0.0000  0.0000  0.0000  0.0000  0.0000  0.0000  1.0000
  DIIS coefficients:  0.0000  0.0000 -0.0001  0.0040 -0.0829  0.0804  0.9986
 SCF Error: norm([F,P])=      0.064190502313, max([F,P])=      0.025632241905
 orbitals (Q,E):
 ---------------
 S :1...3            ( 2.00   -32.7636)  ( 2.00    -1.9275)  ( 0.00     0.1500)
 P :1...2            ( 6.00    -0.8476)  ( 0.00     0.1421)
 D :1...1            ( 0.00     0.7522)
 F :1...1            ( 0.00     1.6440)

 CYCLE    9
  SDIIS (wt  0.977): -0.0000  0.0000 -0.0000 -0.0004  0.0165 -0.0485 -0.0905  1.1230
 A-DIIS (wt  0.023):  0.0000  0.0000  0.0000  0.0000  0.0000  0.0000  0.0000  1.0000
  DIIS coefficients: -0.0000  0.0000 -0.0000 -0.0004  0.0161 -0.0474 -0.0884  1.1201
 SCF Error: norm([F,P])=      0.008154092644, max([F,P])=      0.003300170804
 orbitals (Q,E):
 ---------------
 S :1...3            ( 2.00   -32.7721)  ( 2.00    -1.9304)  ( 0.00     0.1499)
 P :1...2            ( 6.00    -0.8504)  ( 0.00     0.1420)
 D :1...1            ( 0.00     0.7520)
 F :1...1            ( 0.00     1.6437)

 CYCLE   10
  SDIIS (wt  1.000):  0.0000  0.0000 -0.0000 -0.0000 -0.0021  0.0082  0.0079 -0.1912  1.1772
  DIIS coefficients:  0.0000  0.0000 -0.0000 -0.0000 -0.0021  0.0082  0.0079 -0.1912  1.1772
 SCF Error: norm([F,P])=      0.000114920218, max([F,P])=      0.000045729214
 orbitals (Q,E):
 ---------------
 S :1...3            ( 2.00   -32.7720)  ( 2.00    -1.9304)  ( 0.00     0.1499)
 P :1...2            ( 6.00    -0.8504)  ( 0.00     0.1420)
 D :1...1            ( 0.00     0.7520)
 F :1...1            ( 0.00     1.6437)

 CYCLE   11
  SDIIS (wt  1.000): -0.0000  0.0000 -0.0000 -0.0000  0.0002  0.0017 -0.0284  1.0265
  DIIS coefficients: -0.0000  0.0000 -0.0000 -0.0000  0.0002  0.0017 -0.0284  1.0265
 SCF Error: norm([F,P])=      0.000000836973, max([F,P])=      0.000000360102
 orbitals (Q,E):
 ---------------
 S :1...3            ( 2.00   -32.7720)  ( 2.00    -1.9304)  ( 0.00     0.1499)
 P :1...2            ( 6.00    -0.8504)  ( 0.00     0.1420)
 D :1...1            ( 0.00     0.7520)
 F :1...1            ( 0.00     1.6437)

 CYCLE   12
  SDIIS (wt  1.000): -0.0000  0.0000  0.0000 -0.0010  0.0068 -0.1487  1.1429
  DIIS coefficients: -0.0000  0.0000  0.0000 -0.0010  0.0068 -0.1487  1.1429
 SCF Error: norm([F,P])=      0.000000017913, max([F,P])=      0.000000012603
 orbitals (Q,E):
 ---------------
 S :1...3            ( 2.00   -32.7720)  ( 2.00    -1.9304)  ( 0.00     0.1499)
 P :1...2            ( 6.00    -0.8504)  ( 0.00     0.1420)
 D :1...1            ( 0.00     0.7520)
 F :1...1            ( 0.00     1.6437)

 CYCLE   13
  SDIIS (wt  1.000):  0.0000  0.0000 -0.0022 -0.0416  1.0438
  DIIS coefficients:  0.0000  0.0000 -0.0022 -0.0416  1.0438
 SCF Error: norm([F,P])=      0.000000002778, max([F,P])=      0.000000001520
 orbitals (Q,E):
 ---------------
 S :1...3            ( 2.00   -32.7720)  ( 2.00    -1.9304)  ( 0.00     0.1499)
 P :1...2            ( 6.00    -0.8504)  ( 0.00     0.1420)
 D :1...1            ( 0.00     0.7520)
 F :1...1            ( 0.00     1.6437)

 SCF CONVERGED

 CYCLE   14
1
 ***************************************************************************************************



                                                *******************
                                                *  R E S U L T S  *
                                                *******************
  
  
 Hartree-Fock exchange energy:   -12.1080633614979     
 *** Setting up for NEW gradients in Focky
 *** Using FIT density in Focky

 Orbital Energies, per Irrep and Spin:
 ======================================
                        Occup              E (au)              E (eV)       Diff (eV) with prev. cycle
                        -----      --------------------        ------       --------------------------
 S
               1        2.000     -0.32772008210331E+02      -891.772              -7.37E-10
               2        2.000     -0.19303962957194E+01       -52.529              -5.34E-10
               3        0.000      0.14985504443251E+00         4.078
               4        0.000      0.10819667839717E+01        29.442
               5        0.000      0.50890621100657E+01       138.480
               6        0.000      0.23022419039585E+02       626.472
               7        0.000      0.10009956480785E+03      2723.848
               8        0.000      0.61368483242551E+03     16699.214
 P
               1        6.000     -0.85039600068414E+00       -23.140              -4.85E-10
               2        0.000      0.14201124777126E+00         3.864
               3        0.000      0.82551590052995E+00        22.463
               4        0.000      0.39243510186143E+01       106.787
               5        0.000      0.22343306503620E+02       607.992
 D
               1        0.000      0.75202691416488E+00        20.464
               2        0.000      0.29187607648694E+01        79.424
 F
               1        0.000      0.16437236889222E+01        44.728
               2        0.000      0.77969456389741E+01       212.166
  
 HOMO :        1 P                -0.85039600068414E+00
 LUMO :        2 P                 0.14201124777126E+00
  


 Orbital Energies, all Irreps
 ========================================

 Irrep        no.  (spin)   Occup              E (au)                E (eV)
 ---------------------------------------------------------------------------
 S             1             2.00       -0.32772008210331E+02      -891.7717
 S             2             2.00       -0.19303962957194E+01       -52.5288
 P             1             6.00       -0.85039600068414E+00       -23.1405
 P             2             0.00        0.14201124777126E+00         3.8643
 S             3             0.00        0.14985504443251E+00         4.0778
 D             1             0.00        0.75202691416488E+00        20.4637
 P             3             0.00        0.82551590052995E+00        22.4634
 S             4             0.00        0.10819667839717E+01        29.4418
 F             1             0.00        0.16437236889222E+01        44.7280
 D             2             0.00        0.29187607648694E+01        79.4235
 P             4             0.00        0.39243510186143E+01       106.7870
 S             5             0.00        0.50890621100657E+01       138.4804
 F             2             0.00        0.77969456389741E+01       212.1657
 P             5             0.00        0.22343306503620E+02       607.9923
 S             6             0.00        0.23022419039585E+02       626.4719
 S             7             0.00        0.10009956480785E+03      2723.8477
 S             8             0.00        0.61368483242551E+03     16699.2140


 All Electron Calculation, thus no Orbital Energies of the Core Orbitals are calculated



 =======================================
 M U L L I K E N   P O P U L A T I O N S
 =======================================
  
 The survey below gives for each atom:
 a) the total charge (Z minus electrons)
 b) the net spin polarization (nr of electrons spin-A minus spin-B)
 c) for each spin the atomic electron valence density (integrated) per L-value.

 Atom              Charge    Spin density          S         P         D         F
 ----              ------    ------------       ------    ------    ------    ------
 1 Ne              0.0000                       4.0000    6.0000    0.0000    0.0000

 Populations of individual BAS functions
 ----------------------------------------
 1 Ne           0.0193  0.3992  1.9054 -0.3753  0.6127  1.1950  0.2445 -0.0007  0.0682  0.0682
                0.0682  0.6532  0.6532  0.6532  1.0506  1.0506  1.0506  0.2347  0.2347  0.2347
               -0.0067 -0.0067 -0.0067  0.0000  0.0000  0.0000  0.0000  0.0000  0.0000  0.0000
                0.0000  0.0000  0.0000  0.0000  0.0000  0.0000  0.0000  0.0000  0.0000  0.0000
                0.0000  0.0000  0.0000  0.0000  0.0000  0.0000  0.0000  0.0000  0.0000  0.0000
                0.0000  0.0000  0.0000  0.0000  0.0000

 Gross Charges per Atom (Z minus electrons)
 ==========================================
             0.0000
 Net Total:  0.00000000



 =======================================================================
 Electrostatic potential at the Nuclei due to electrons and other nuclei
 =======================================================================
  
         Atom                  Potential
         ----                  ---------
     1)   Ne                 31.11323220
 
 
 ========================
 No memory problems found
 ========================
 
 Maximum number of active allocate calls:         454
 
 *******************************************************************************

                             A D F   E X I T
 NORMAL TERMINATION



 =================
 Timing Statistics
 =================
  
 Total Used :                     CPU=        1.49      System=        0.05     Elapsed=        1.98

 Calls  Section                     ( Mean, Percentage )
 ---------------------------------------------------------------------------------------------------
     3  ><      ................      0.00    0.25             0.00    0.00             0.00    0.19
     1  INIT    ................      0.05    3.35             0.01   13.98             0.49   24.94
     1  GEOMET  ................      0.02    1.60             0.02   43.54             0.05    2.43
     1  INPUTA  ................      0.01    0.34             0.00    0.00             0.01    0.26
     1  MAINSY  ................      0.01    0.89             0.00    0.00             0.01    0.67
     1  SYMFIT  ................      0.00    0.10             0.00    0.00             0.00    0.07
     1  CORORT  ................      0.00    0.07             0.00    0.15             0.00    0.05
     1  SYMORB  ................      0.00    0.08             0.00    0.00             0.00    0.06
     1  FITINT  ................      0.02    1.52             0.00    0.00             0.02    1.15
     1  CLSMAT  ................      0.00    0.12             0.00    0.00             0.00    0.09
     1  ORTHON  ................      0.01    0.59             0.00    0.00             0.01    0.44
     1  GENPT   ................      0.03    1.80             0.00    0.00             0.03    1.35
     1  PTBAS   ................      0.01    0.44             0.00    0.00             0.01    0.33
    14  FOCKY   ................      0.08   78.41             0.00   42.33             0.08   60.10
    14  FOCKTR  ................      0.00    1.15             0.00    0.00             0.00    0.87
    14  SDIIS   ................      0.00    3.47             0.00    0.00             0.00    2.61
     1  COREPS  ................      0.05    3.06             0.00    0.00             0.05    2.31
     1  POPAN   ................      0.02    1.05             0.00    0.00             0.02    0.79
     1  DEBYE   ................      0.00    0.18             0.00    0.00             0.00    0.14
     1  EXIT PROCEDURE .........      0.02    1.53             0.00    0.00             0.02    1.16


 Currently Open Files (EXIT00)
 ====================

 Unit    Access Format  Status   Type       Ident (file)
 -------------------------------------------------------
   3      SEQ    FORM   TRANSP  NORMAL      LOGFILE
                                          ( logfile )


 Buffered I/O statistics
 =======================
 Memory available:                     67108864
 Number of records fitting in memory:     16131
 Input :   0.1% of                        47075  *4k bytes
 Output:   8.0% of                         2585  *4k bytes
 Records from serial files evicted:           0
                    others evicted:           0
 Hash table lookups:      95446 with          0 conflicts (  0.00%)

 ***************************************************************************************************
 (LOGFILE)
 <Mar23-2019> <13:46:25>  ADF 2018  RunTime: Mar23-2019 13:46:25  Nodes: 1  Procs: 1
 <Mar23-2019> <13:46:25>  Neon (QZ, all electron, 8S 5P 2D 2F)
 <Mar23-2019> <13:46:25>  RunType   : CREATE
 <Mar23-2019> <13:46:25>  Net Charge: 0 (Nuclei minus Electrons)
 <Mar23-2019> <13:46:25>  Symmetry  : ATOM
  Coordinates
    Atom         X           Y           Z   (Angstrom)
    1.Ne        0.000000    0.000000    0.000000
 <Mar23-2019> <13:46:25>  >>>> CORORT
 <Mar23-2019> <13:46:25>  >>>> FITINT
 <Mar23-2019> <13:46:25>  >>>> CLSMAT
 <Mar23-2019> <13:46:25>  >>>> ORTHON
 <Mar23-2019> <13:46:25>  >>>> GENPT
 <Mar23-2019> <13:46:25>  Block Length=  89
 <Mar23-2019> <13:46:25>  >>>> PTBAS
 <Mar23-2019> <13:46:25>  >>>> CYCLE
 <Mar23-2019> <13:46:25>  CalcFitR12Fit
 <Mar23-2019> <13:46:25>  CalcFitCoeff
 <Mar23-2019> <13:46:25>              |Error|         MaxErr       Wt(A-DIIS)
 <Mar23-2019> <13:46:25>      1      0.00000000      0.00000000
 <Mar23-2019> <13:46:25>      2     18.63971113      5.82822602    100.0
 <Mar23-2019> <13:46:25>      3      5.80725476      4.95060660    100.0
 <Mar23-2019> <13:46:25>      4      1.33800376      0.47004516    100.0
 <Mar23-2019> <13:46:25>      5      0.72585989      0.29648606    100.0
 <Mar23-2019> <13:46:26>      6      0.37844960      0.14971251    100.0
 <Mar23-2019> <13:46:26>      7      0.17428766      0.07089615     70.6
 <Mar23-2019> <13:46:26>      8      0.06419050      0.02563224     24.9
 <Mar23-2019> <13:46:26>      9      0.00815409      0.00330017      2.3
 <Mar23-2019> <13:46:26>     10      0.00011492      0.00004573      0.0
 <Mar23-2019> <13:46:26>     11      0.00000084      0.00000036      0.0
 <Mar23-2019> <13:46:26>     12      0.00000002      0.00000001      0.0
 <Mar23-2019> <13:46:26>     13      0.00000000      0.00000000      0.0
 <Mar23-2019> <13:46:26>  SCF converged
 <Mar23-2019> <13:46:26>     14      0.00000000      0.00000000      0.0
 <Mar23-2019> <13:46:26>  >>>> POPAN
 <Mar23-2019> <13:46:26>  >>>> DEBYE
 <Mar23-2019> <13:46:26>  NORMAL TERMINATION
 <Mar23-2019> <13:46:26>  END


 Parallel Execution: Process Information
 ==============================================================================
 Rank   Node Name                              NodeID   MyNodeRank  NodeMaster
    0   vladimir-Kubuntu-16                       0          0          0
    1   vladimir-Kubuntu-16                       0          1         -1
    2   vladimir-Kubuntu-16                       0          2         -1
    3   vladimir-Kubuntu-16                       0          3         -1
 ==============================================================================


May use up to 7611MB of RAM as shared memory on node 0
 
Title Ne

ATOMS
 Ne        0.0000000000 0.0000000000 0.0000000000
END

CHARGE 0 0

XC
  HartreeFock
END

EPRINT
  SFO NOEIG NOOVL NOORBPOP
  SCF NOPOP
END

NOPRINT BAS FUNCTIONS

TOTALENERGY
NOTOTEN

Fragments
Ne t21.Ne
End

 *******************************************************************************
 *                                                                             *
 *  -------------------------------------                                      *
 *   Amsterdam Density Functional  (ADF)         2018                          *
 *  -------------------------------------                                      *
 *                                               r70630 2018-11-24             *
 *                                                                             *
 *                                                                             *
 *                              =================                              *
 *                              |               |                              *
 *                              |     A D F     |                              *
 *                              |               |                              *
 *                              =================                              *
 *                                                                             *
 *                                                                             *
 *   Online information and documentation:  https://www.scm.com/support/       *
 *   E-mail:  support@scm.com   info@scm.com                                   *
 *                                                                             *
 *   Scientific publications using ADF results must be properly referenced     *
 *   See the User Manuals (or the web site) for recommended citations          *
 *   The terms and conditions of the End User License Agreement apply to       *
 *   the use of ADF, https://www.scm.com/license-terms/                        *
 *                                                                             *
 **********************  x86_64_linux_intel / intelmpi  ************************
 
 Licensed to: Mr. Vladimir Konjkov / Florida Institute of Technology / Melbourne / Florida / USA
 SCM User ID: u21173
  
 ADF 2018  RunTime: Mar23-2019 13:46:27  Nodes: 1  Procs: 4

 Temporary files are created in /tmp/kid_0.1952427923


Communication costs MPI_COMM_WORLD:      0.451 usec per message,   0.0049 usec per 8-byte item
Communication costs for intra-node:      0.443 usec per message,   0.0049 usec per 8-byte item

 Ne



 ===========================
 A T T A C H E D   F I L E S
 ===========================
  



 ===============================
 M O D E L   P A R A M E T E R S
 ===============================
  
 DENSITY FUNCTIONAL POTENTIAL (scf)
    Hybrid:                            HARTREEFOCK                             == Not Default ==

 SPIN  (restricted / unrestr.)
    Molecule:                          Restricted                               
    Fragments:                         Restricted                               

 OTHER ASPECTS
    Relativistic Corrections:          ---                                      

    Nuclear Charge Density Model:      Point Charge Nuclei                      
    Core Treatment:                    Frozen Orbital(s)                        

    Hyperfine or Zeeman Interaction:   ---                                      


 Fragment File(s)
 ----------------
 Ne:
         file : t21.Ne
         jobid: ADF 2018  RunTime: Mar23-2019 13:46:25  Nodes: 1  Procs: 1
         title: Neon (QZ, all electron, 8S 5P 2D 2F)



                                        ************************************
                                        *  R U N   T Y P E : SINGLE POINT  *
                                        ************************************
  



 ===============
 G E O M E T R Y  ***  Single Atom  ***
 ===============
  

 ATOMS
 =====                            X Y Z                    CHARGE
                                (Angstrom)             Nucl     +Core       At.Mass
                       --------------------------    ----------------       -------
    1  Ne              0.0000    0.0000    0.0000     10.00     10.00       19.9924


 FRAGMENTS
 =========                                     Atoms in this Fragment     Cart. coord.s (Angstrom)
                                               -------------------------------------------------------
    1  Ne                                                1  Ne           0.0000    0.0000    0.0000



 =====================================
 S Y M M E T R Y ,   E L E C T R O N S
 =====================================
  
 Symmetry: ATOM

 Irreducible Representations, including subspecies
 -------------------------------------------------
 S
 P:x  P:y  P:z
 D:z2  D:x2-y2  D:xy  D:xz  D:yz
 F:z3  F:z  F:xyz  F:z2x  F:z2y  F:x  F:y


 Configuration of Valence Electrons
 ==================================
 ( determined in the SCF procedure )

 Total:   10

 Net Charge: 0 (Nuclei minus Electrons)

 Aufbau principle for MO occupations will be applied through SCF cycle no.     150
 Thereafter, the program will assign electrons to MOs that are spatially
 similar to the occupied MOs in a "reference" cycle ("KeepOrbitals").
 The reference cycle is always the PREVIOUS cycle: it will evolve with
 the SCF procedure.



 =======
 S F O s  ***  (Symmetrized Fragment Orbitals)  ***
 =======
  
 SFOs are linear combinations of (valence) Fragment Orbitals (FOs), such that the SFOs transform as the
 irreducible representations of the (molecular) symmetry group. Each SFO is therefore characterized by
 an irrep of the molecule and by a few (or only one) generating FOs.
 The SFOs constitute a symmetry-adapted basis for the Fock matrix. The MO eigenvector coefficients in
 this basis provide a direct interpretation of the MOs in terms of Frontier Orbital Theory.

 The SFOs are combined with auxiliary Core Functions (CFs) to ensure orthogonalization on the (frozen)
 Core Orbitals (COs). The Core-orthogonalized SFOs (CSFOs) constitute the true Fock basis.

 The FOs, and hence also the (C)SFOs are combinations of the elementary basis functions (BAS). The basis
 functions that participate in the description of the SFOs depend on the irrep. The indices of the
 involved functions are printed below for each irrep.
 (The complete list of primitive basis functions is printed in another section)

 Total nr. of (C)SFOs (summation over all irreps) :    47

 NOTE: a (C)SFO that is defined as a combination of more than one FO is usually NOT normalized.



                                       === S ===
 Nr. of SFOs :    8
 Cartesian basis functions that participate in this irrep (total number =     8) :
      1     2     3     4     5     6     7     8

    SFO  (index         Fragment          Generating    Expansion in Fragment Orbitals
  indx  incl.CFs)   Occup   Orb.Energy   FragmentType  Coeff.   Orbital     on Fragment
 --------------------------------------------------------------------------------------
     1       1      2.000     -32.772 au  Ne            1.00      1 S               1
                        (    -891.772 eV)
     2       2      2.000      -1.930 au  Ne            1.00      2 S               1
                        (     -52.529 eV)
     3       3       --         0.150 au  Ne            1.00      3 S               1
                        (       4.078 eV)
     4       4       --         1.082 au  Ne            1.00      4 S               1
                        (      29.442 eV)
     5       5       --         5.089 au  Ne            1.00      5 S               1
                        (     138.480 eV)
     6       6       --        23.022 au  Ne            1.00      6 S               1
                        (     626.472 eV)
     7       7       --       100.100 au  Ne            1.00      7 S               1
                        (    2723.848 eV)
     8       8       --       613.685 au  Ne            1.00      8 S               1
                        (   16699.214 eV)



                                       === P:x ===
 Nr. of SFOs :    5
 Cartesian basis functions that participate in this irrep (total number =     5) :
      9    12    15    18    21

    SFO  (index         Fragment          Generating    Expansion in Fragment Orbitals
  indx  incl.CFs)   Occup   Orb.Energy   FragmentType  Coeff.   Orbital     on Fragment
 --------------------------------------------------------------------------------------
     1       1      2.000      -0.850 au  Ne            1.00      1 P:x             1
                        (     -23.140 eV)
     2       2       --         0.142 au  Ne            1.00      2 P:x             1
                        (       3.864 eV)
     3       3       --         0.826 au  Ne            1.00      3 P:x             1
                        (      22.463 eV)
     4       4       --         3.924 au  Ne            1.00      4 P:x             1
                        (     106.787 eV)
     5       5       --        22.343 au  Ne            1.00      5 P:x             1
                        (     607.992 eV)



                                       === P:y ===
 Nr. of SFOs :    5
 Cartesian basis functions that participate in this irrep (total number =     5) :
     10    13    16    19    22

    SFO  (index         Fragment          Generating    Expansion in Fragment Orbitals
  indx  incl.CFs)   Occup   Orb.Energy   FragmentType  Coeff.   Orbital     on Fragment
 --------------------------------------------------------------------------------------
     1       1      2.000      -0.850 au  Ne            1.00      1 P:y             1
                        (     -23.140 eV)
     2       2       --         0.142 au  Ne            1.00      2 P:y             1
                        (       3.864 eV)
     3       3       --         0.826 au  Ne            1.00      3 P:y             1
                        (      22.463 eV)
     4       4       --         3.924 au  Ne            1.00      4 P:y             1
                        (     106.787 eV)
     5       5       --        22.343 au  Ne            1.00      5 P:y             1
                        (     607.992 eV)



                                       === P:z ===
 Nr. of SFOs :    5
 Cartesian basis functions that participate in this irrep (total number =     5) :
     11    14    17    20    23

    SFO  (index         Fragment          Generating    Expansion in Fragment Orbitals
  indx  incl.CFs)   Occup   Orb.Energy   FragmentType  Coeff.   Orbital     on Fragment
 --------------------------------------------------------------------------------------
     1       1      2.000      -0.850 au  Ne            1.00      1 P:z             1
                        (     -23.140 eV)
     2       2       --         0.142 au  Ne            1.00      2 P:z             1
                        (       3.864 eV)
     3       3       --         0.826 au  Ne            1.00      3 P:z             1
                        (      22.463 eV)
     4       4       --         3.924 au  Ne            1.00      4 P:z             1
                        (     106.787 eV)
     5       5       --        22.343 au  Ne            1.00      5 P:z             1
                        (     607.992 eV)



                                       === D:z2 ===
 Nr. of SFOs :    2
 Cartesian basis functions that participate in this irrep (total number =     6) :
     24    27    29    30    33    35

    SFO  (index         Fragment          Generating    Expansion in Fragment Orbitals
  indx  incl.CFs)   Occup   Orb.Energy   FragmentType  Coeff.   Orbital     on Fragment
 --------------------------------------------------------------------------------------
     1       1       --         0.752 au  Ne            1.00      1 D:z2            1
                        (      20.464 eV)
     2       2       --         2.919 au  Ne            1.00      2 D:z2            1
                        (      79.424 eV)



                                       === D:x2-y2 ===
 Nr. of SFOs :    2
 Cartesian basis functions that participate in this irrep (total number =     4) :
     24    27    30    33

    SFO  (index         Fragment          Generating    Expansion in Fragment Orbitals
  indx  incl.CFs)   Occup   Orb.Energy   FragmentType  Coeff.   Orbital     on Fragment
 --------------------------------------------------------------------------------------
     1       1       --         0.752 au  Ne            1.00      1 D:x2-y2         1
                        (      20.464 eV)
     2       2       --         2.919 au  Ne            1.00      2 D:x2-y2         1
                        (      79.424 eV)



                                       === D:xy ===
 Nr. of SFOs :    2
 Cartesian basis functions that participate in this irrep (total number =     2) :
     25    31

    SFO  (index         Fragment          Generating    Expansion in Fragment Orbitals
  indx  incl.CFs)   Occup   Orb.Energy   FragmentType  Coeff.   Orbital     on Fragment
 --------------------------------------------------------------------------------------
     1       1       --         0.752 au  Ne            1.00      1 D:xy            1
                        (      20.464 eV)
     2       2       --         2.919 au  Ne            1.00      2 D:xy            1
                        (      79.424 eV)



                                       === D:xz ===
 Nr. of SFOs :    2
 Cartesian basis functions that participate in this irrep (total number =     2) :
     26    32

    SFO  (index         Fragment          Generating    Expansion in Fragment Orbitals
  indx  incl.CFs)   Occup   Orb.Energy   FragmentType  Coeff.   Orbital     on Fragment
 --------------------------------------------------------------------------------------
     1       1       --         0.752 au  Ne            1.00      1 D:xz            1
                        (      20.464 eV)
     2       2       --         2.919 au  Ne            1.00      2 D:xz            1
                        (      79.424 eV)



                                       === D:yz ===
 Nr. of SFOs :    2
 Cartesian basis functions that participate in this irrep (total number =     2) :
     28    34

    SFO  (index         Fragment          Generating    Expansion in Fragment Orbitals
  indx  incl.CFs)   Occup   Orb.Energy   FragmentType  Coeff.   Orbital     on Fragment
 --------------------------------------------------------------------------------------
     1       1       --         0.752 au  Ne            1.00      1 D:yz            1
                        (      20.464 eV)
     2       2       --         2.919 au  Ne            1.00      2 D:yz            1
                        (      79.424 eV)



                                       === F:z3 ===
 Nr. of SFOs :    2
 Cartesian basis functions that participate in this irrep (total number =     6) :
     38    43    45    48    53    55

    SFO  (index         Fragment          Generating    Expansion in Fragment Orbitals
  indx  incl.CFs)   Occup   Orb.Energy   FragmentType  Coeff.   Orbital     on Fragment
 --------------------------------------------------------------------------------------
     1       1       --         1.644 au  Ne            1.00      1 F:z3            1
                        (      44.728 eV)
     2       2       --         7.797 au  Ne            1.00      2 F:z3            1
                        (     212.166 eV)



                                       === F:z ===
 Nr. of SFOs :    2
 Cartesian basis functions that participate in this irrep (total number =     4) :
     38    43    48    53

    SFO  (index         Fragment          Generating    Expansion in Fragment Orbitals
  indx  incl.CFs)   Occup   Orb.Energy   FragmentType  Coeff.   Orbital     on Fragment
 --------------------------------------------------------------------------------------
     1       1       --         1.644 au  Ne            1.00      1 F:z             1
                        (      44.728 eV)
     2       2       --         7.797 au  Ne            1.00      2 F:z             1
                        (     212.166 eV)



                                       === F:xyz ===
 Nr. of SFOs :    2
 Cartesian basis functions that participate in this irrep (total number =     2) :
     40    50

    SFO  (index         Fragment          Generating    Expansion in Fragment Orbitals
  indx  incl.CFs)   Occup   Orb.Energy   FragmentType  Coeff.   Orbital     on Fragment
 --------------------------------------------------------------------------------------
     1       1       --         1.644 au  Ne            1.00      1 F:xyz           1
                        (      44.728 eV)
     2       2       --         7.797 au  Ne            1.00      2 F:xyz           1
                        (     212.166 eV)



                                       === F:z2x ===
 Nr. of SFOs :    2
 Cartesian basis functions that participate in this irrep (total number =     6) :
     36    39    41    46    49    51

    SFO  (index         Fragment          Generating    Expansion in Fragment Orbitals
  indx  incl.CFs)   Occup   Orb.Energy   FragmentType  Coeff.   Orbital     on Fragment
 --------------------------------------------------------------------------------------
     1       1       --         1.644 au  Ne            1.00      1 F:z2x           1
                        (      44.728 eV)
     2       2       --         7.797 au  Ne            1.00      2 F:z2x           1
                        (     212.166 eV)



                                       === F:z2y ===
 Nr. of SFOs :    2
 Cartesian basis functions that participate in this irrep (total number =     6) :
     37    42    44    47    52    54

    SFO  (index         Fragment          Generating    Expansion in Fragment Orbitals
  indx  incl.CFs)   Occup   Orb.Energy   FragmentType  Coeff.   Orbital     on Fragment
 --------------------------------------------------------------------------------------
     1       1       --         1.644 au  Ne            1.00      1 F:z2y           1
                        (      44.728 eV)
     2       2       --         7.797 au  Ne            1.00      2 F:z2y           1
                        (     212.166 eV)



                                       === F:x ===
 Nr. of SFOs :    2
 Cartesian basis functions that participate in this irrep (total number =     4) :
     36    39    46    49

    SFO  (index         Fragment          Generating    Expansion in Fragment Orbitals
  indx  incl.CFs)   Occup   Orb.Energy   FragmentType  Coeff.   Orbital     on Fragment
 --------------------------------------------------------------------------------------
     1       1       --         1.644 au  Ne            1.00      1 F:x             1
                        (      44.728 eV)
     2       2       --         7.797 au  Ne            1.00      2 F:x             1
                        (     212.166 eV)



                                       === F:y ===
 Nr. of SFOs :    2
 Cartesian basis functions that participate in this irrep (total number =     4) :
     37    42    47    52

    SFO  (index         Fragment          Generating    Expansion in Fragment Orbitals
  indx  incl.CFs)   Occup   Orb.Energy   FragmentType  Coeff.   Orbital     on Fragment
 --------------------------------------------------------------------------------------
     1       1       --         1.644 au  Ne            1.00      1 F:y             1
                        (      44.728 eV)
     2       2       --         7.797 au  Ne            1.00      2 F:y             1
                        (     212.166 eV)

 Total number of charge fitting functions (nprimf)       184
 Total number of Cartesian basis functions (naos)         55
 Total number of Cartesian core functions  (ncos)          0

1
 ***************************************************************************************************



                                              ***********************
                                              *  T E C H N I C A L  *
                                              ***********************
  



 =============================================================
 P A R A L L E L I Z A T I O N  and  V E C T O R I Z A T I O N
 =============================================================
  
 Nr of parallel processes:                                4
 Maximum vector length in NumInt loops:                 128

 IO buffersize (Mb):                                     64.000000



 =====================
 S C F   U P D A T E S
 =====================
  
 Max. nr. of cycles:                               300
 Convergence criterion:                              0.0000010000
   secondary criterion:                              0.0010000000

 Mix parameter (when DIIS does not apply):           0.2000000000
 Mixed ADIIS+DIIS will be used
    Max number of expansion vectors:                10
    Pure ADIIS when Max([F,P]) is above              0.1000000000
    Pure DIIS when Max([F,P]) is below               0.0010000000
 Automatic ElectronSmearing (in case of problematic SCF convergence) disabled



 =================
 P R E C I S I O N  ***  (General: NumInt, NeglectFunctionTails, ...)  ***
 =================
  

 NumInt:           Target precision:                 4.0000000000
 -------           Initial precision:                4.0000000000
                   Min. precision (optimization):    4.0000000000

 Neglect Functions:          Basis functions:        0.1000000000E-05
 ------------------          Fit functions:          0.1000000000E-05



 ===========================
 L I N E A R   S C A L I N G
 ===========================
  

 Cut-off radii density fit:                        0.1000000000E-07
 Overlap cut-off criterion AO matrix elements:     0.1000000000E-05
 Cut-offs for Coulomb potential and fitted density:0.1000000000E-07
 Cut-off criterion for Coulomb multipole terms:    0.1000000000E-07
 Progressive Convergence parameter:                 0.000000000    
1
 ***************************************************************************************************



                                            ***************************
                                            *  C O M P U T A T I O N  *
                                            ***************************
  

 Number of elements of the density matrix on this node (used, total):      1540      1540



 ===========================================
 Numerical Integration : Fuzzy Cells (Becke)
 ===========================================
  
 Becke grid quality: NORMAL         
  
 Lebedev angular grid order:             min:  11 max:  23
 Nr. of radial points:                   min:  64 max:  64

 Total nr. of points:         64
 Nr. of blocks:                1
 Block length:                64
 Nr. of dummy points:          0


 Test of Precision of the Numerical Integration Grid
 ===================================================

 Integral of the Total Core Density:                   0.00000000000000



 ========================
 Density Fitting (zlmFit)
 ========================
  
 ZlmFit Fit Quality: NORMAL         
  
 Max L-expansion:                        min:   7 max:   7
 Nr. of radial interpolation points:     min:  63 max:  63



 ======================
 RI Hartree-Fock Scheme
 ======================
  
 Fit Set Quality     : NORMAL
 Integration Quality : NORMAL
 Threshold Quality   : NORMAL
 Response Quality    : DEFAULT
 Is Range Separated  :  F
 
 RIHartreeFock Dependency: number of modified vectors:           0



 =====
 S C F  ***  ScaSCF  ***
 =====
  
 Initial density matrix is calculated as sum of fragments

 CYCLE    1
 Orbital Data from active fragment used
 SCF Error: norm([F,P])=      0.002071910904, max([F,P])=      0.000734220141
 orbitals (Q,E):
 ---------------
 S :1...8            ( 2.00   -32.7748)  ( 2.00    -1.9315)  ( 0.00     0.1495)  ( 0.00     1.0814)
                     ( 0.00     5.0880)  ( 0.00    23.0207)  ( 0.00   100.0971)  ( 0.00   613.6820)
 P :1...5            ( 6.00    -0.8515)  ( 0.00     0.1418)  ( 0.00     0.8250)  ( 0.00     3.9232)
                     ( 0.00    22.3413)
 D :1...2            ( 0.00     0.7516)  ( 0.00     2.9179)
 F :1...2            ( 0.00     1.6433)  ( 0.00     7.7960)

 CYCLE    2
  SDIIS (wt  0.000):  0.3412  0.6588
 A-DIIS (wt  1.000):  0.0052  0.9948
  DIIS coefficients:  0.0052  0.9948
 SCF Error: norm([F,P])=      0.001077738617, max([F,P])=      0.000424721243
 orbitals (Q,E):
 ---------------
 S :1...3            ( 2.00   -32.7731)  ( 2.00    -1.9309)  ( 0.00     0.1496)
 P :1...2            ( 6.00    -0.8510)  ( 0.00     0.1418)
 D :1...1            ( 0.00     0.7516)
 F :1...1            ( 0.00     1.6433)

 CYCLE    3
  SDIIS (wt  0.000): -0.0327  0.3049  0.7279
 A-DIIS (wt  1.000):  0.0000  0.0245  0.9755
  DIIS coefficients:  0.0000  0.0245  0.9755
 SCF Error: norm([F,P])=      0.000543508842, max([F,P])=      0.000211329150
 orbitals (Q,E):
 ---------------
 S :1...3            ( 2.00   -32.7740)  ( 2.00    -1.9312)  ( 0.00     0.1495)
 P :1...2            ( 6.00    -0.8513)  ( 0.00     0.1418)
 D :1...1            ( 0.00     0.7516)
 F :1...1            ( 0.00     1.6433)

 CYCLE    4
  SDIIS (wt  1.000): -0.0761  0.2490  0.8271
  DIIS coefficients: -0.0761  0.2490  0.8271
 SCF Error: norm([F,P])=      0.000262682879, max([F,P])=      0.000102476282
 orbitals (Q,E):
 ---------------
 S :1...3            ( 2.00   -32.7737)  ( 2.00    -1.9311)  ( 0.00     0.1495)
 P :1...2            ( 6.00    -0.8512)  ( 0.00     0.1418)
 D :1...1            ( 0.00     0.7516)
 F :1...1            ( 0.00     1.6433)

 CYCLE    5
  SDIIS (wt  1.000):  0.0106 -0.0423 -0.1310  1.1627
  DIIS coefficients:  0.0106 -0.0423 -0.1310  1.1627
 SCF Error: norm([F,P])=      0.000000124413, max([F,P])=      0.000000085931
 orbitals (Q,E):
 ---------------
 S :1...3            ( 2.00   -32.7737)  ( 2.00    -1.9311)  ( 0.00     0.1495)
 P :1...2            ( 6.00    -0.8512)  ( 0.00     0.1418)
 D :1...1            ( 0.00     0.7516)
 F :1...1            ( 0.00     1.6433)

 SCF CONVERGED

 CYCLE    6
1
 ***************************************************************************************************



                                                *******************
                                                *  R E S U L T S  *
                                                *******************
  
  
 Hartree-Fock exchange energy:   -12.1088662651586     
 *** Setting up for NEW gradients in Focky
 *** Using FIT density in Focky

 Orbital Energies, per Irrep and Spin:
 ======================================
                        Occup              E (au)              E (eV)       Diff (eV) with prev. cycle
                        -----      --------------------        ------       --------------------------
 S
               1        2.000     -0.32773690789341E+02      -891.818              -7.50E-08
               2        2.000     -0.19311398410591E+01       -52.549              -2.57E-08
               3        0.000      0.14954589689079E+00         4.069
               4        0.000      0.10814862528932E+01        29.429
               5        0.000      0.50883786148356E+01       138.462
               6        0.000      0.23021410032692E+02       626.444
               7        0.000      0.10009814594330E+03      2723.809
               8        0.000      0.61368320457695E+03     16699.170
 P
               1        6.000     -0.85116543395872E+00       -23.161              -6.62E-08
               2        0.000      0.14177031227972E+00         3.858
               3        0.000      0.82505704841044E+00        22.451
               4        0.000      0.39236050155002E+01       106.767
               5        0.000      0.22342092271225E+02       607.959
 D
               1        0.000      0.75163199891373E+00        20.453
               2        0.000      0.29181899119887E+01        79.408
 F
               1        0.000      0.16432897747765E+01        44.716
               2        0.000      0.77963485597612E+01       212.149
  
 HOMO :        1 P                -0.85116543395872E+00
 LUMO :        2 P                 0.14177031227972E+00
  


 Orbital Energies, all Irreps
 ========================================

 Irrep        no.  (spin)   Occup              E (au)                E (eV)
 ---------------------------------------------------------------------------
 S             1             2.00       -0.32773690789341E+02      -891.8175
 S             2             2.00       -0.19311398410591E+01       -52.5490
 P             1             6.00       -0.85116543395872E+00       -23.1614
 P             2             0.00        0.14177031227972E+00         3.8578
 S             3             0.00        0.14954589689079E+00         4.0694
 D             1             0.00        0.75163199891373E+00        20.4529
 P             3             0.00        0.82505704841044E+00        22.4509
 S             4             0.00        0.10814862528932E+01        29.4287
 F             1             0.00        0.16432897747765E+01        44.7162
 D             2             0.00        0.29181899119887E+01        79.4080
 P             4             0.00        0.39236050155002E+01       106.7667
 S             5             0.00        0.50883786148356E+01       138.4618
 F             2             0.00        0.77963485597612E+01       212.1494
 P             5             0.00        0.22342092271225E+02       607.9593
 S             6             0.00        0.23021410032692E+02       626.4444
 S             7             0.00        0.10009814594330E+03      2723.8091
 S             8             0.00        0.61368320457695E+03     16699.1697


 All Electron Calculation, thus no Orbital Energies of the Core Orbitals are calculated



 =======================
 T O T A L   E N E R G Y  ***  (contributions)  ***
 =======================
  

*** Note ***

The requirements to the integration accuracy are somewhat higher than for bond energies.
One can expect an accuracy of roughly (accint-2) decimal places, where accint is the
general integration accuracy parameter.
The Coulomb energy is the sum of the Hartree energy (electron-electron Coulomb interaction)
and the nuclear-electron attraction energy. It includes the correction for the first-order
fit error in the Hartree energy.
The potential energy is the sum of the nuclear repulsion energy, the Coulomb energy,
and the exchange-correlation energy.

Kinetic energy           =          128.553789171554

Nuclear repulsion energy =            0.000000000000
Coulomb energy           =         -244.995858660821
XC energy                =          -12.108866265159
Total potential energy   =         -257.104724925980

----------------------------------------------------
Total energy             =         -128.550935754426
Virial theorem           =            1.999977803710
----------------------------------------------------

 Gross Charges per Atom (Z minus electrons)
 ==========================================
            -0.0000
 Net Total: -0.00000000



 =================================================================
 M U L T I P O L E   D E R I V E D   C H A R G E   A N A L Y S I S
 =================================================================

 This charge analysis uses the atomic multipoles (obtained from the fitted density) up to some level X,
 and reconstructs these multipoles exactly (up to level X) by distributing charges over all atoms.
 This is achieved by using Lagrange multipliers and a weight function to keep the multipoles local.

 Dummy atoms can be included (by setting INCDUM in MDC-block to 1) to obtain a fractional charge.
 This is generally useful and necessary only for small symmetrical molecules, when there are not
 enough degrees of freedom to reconstruct the multipoles.

 Since the atomic multipoles are reconstructed up to level X,
 the molecular multipoles are represented also up to level X.
 The recommended level is to reconstruct up to quadrupole : -> MDC-q charges.

 See: M. Swart, P.Th. van Duijnen, J.G. Snijders, J.Comput.Chem., (2001), p. 79-88.

 ------------------------------------------------------------- 
 Atomic electronic multipole moments from SCF equations (a.u.)
 ------------------------------------------------------------- 

   atom        charge        dip-x     dip-y     dip-z      quad-xx   quad-xy   quad-xz   quad-yy   quad-yz   quad-zz
 --------------------------------------------------------------------------------------------------------------------
    1 Ne     0.000000     0.000000  0.000000  0.000000    -0.000000  0.000000  0.000000 -0.000000  0.000000  0.000000

 --------------------------------------- 
 Multipole derived atomic charges (a.u.)
 --------------------------------------- 

 The MDC-m charges are just the Monopole terms in the multipole expansion, while for the MDC-d charges
 also the Dipoles are reconstructed. The usually preferred charges are the MDC-q charges.
 These reconstruct the Monopoles, Dipoles and Quadrupoles (both atomic AND molecular).

        Atom    Level:     MDC-m        MDC-d        MDC-q
 ---------------------------------------------------------
     1     Ne           0.000000     0.000000     0.000000

 ------------------------------------------------ 
 Average absolute deviations in atomic multipoles
 ------------------------------------------------ 

 Stated here are the average differences between the atomic multipoles
 and the reconstructed atomic multipoles (from the distributed charges).
 If these values are not zero, this means there are not enough degrees of freedom,
 to be able to reconstruct the atomic multipoles. (This usually happens only
 for small and/or highly symmetric molecules). If this is the case, one could add
 dummy atoms as extra point charges (and setting INCDUM in MDC-block to 1).

 Level:                                 MDC-d        MDC-q
 ---------------------------------------------------------
 Charge   (a.u.)                       0.0000       0.0000
 Dipole   (Debye)                      0.0000       0.0000
 Quad.    (a.u.)                       0.0000       0.0000

 --------------------------------------- 
 Represented molecular multipole moments
 --------------------------------------- 

 Given here are the Molecular multipole moments from the atomic charges, and from the Fit Density.
 Note that the atomic charges represent the latter, NOT the ones from the Exact density.

            Q (a.u.)             Dipole moment (Debye)                                          Quadrupole moment (a.u.)
                                 x         y         z              xx        xy        xz        yy        yz        zz
------------------------------------------------------------------------------------------------------------------------
MDC-m         0.0000        0.0000    0.0000    0.0000          0.0000    0.0000    0.0000    0.0000    0.0000    0.0000
MDC-d         0.0000        0.0000    0.0000    0.0000          0.0000    0.0000    0.0000    0.0000    0.0000    0.0000
MDC-q         0.0000        0.0000    0.0000    0.0000          0.0000    0.0000    0.0000    0.0000    0.0000    0.0000
 
Fit.Dens.     0.0000        0.0000    0.0000    0.0000         -0.0000    0.0000    0.0000   -0.0000    0.0000    0.0000



 =============
 Dipole Moment  ***  (Debye)  ***
 =============
  
 Vector   :         0.00000000      0.00000000      0.00000000
 Magnitude:         0.00000000

 This molecular dipole moment is calculated with analytic integration



 =========================================
 Quadrupole Moment (Buckingham convention)  ***  (a.u.)  ***
 =========================================
  
      quad-xx        quad-xy        quad-xz        quad-yy        quad-yz        quad-zz
      0.00000000     0.00000000     0.00000000     0.00000000     0.00000000     0.00000000

 This molecular quadrupole moment is calculated with analytic integration



 =======================================================================
 Electrostatic potential at the Nuclei due to electrons and other nuclei
 =======================================================================
  
         Atom                  Potential
         ----                  ---------
     1)   Ne                 31.11146188
 
 
 ========================
 No memory problems found
 ========================
 
 Maximum number of active allocate calls:         722
 
 *******************************************************************************

                             A D F   E X I T
 NORMAL TERMINATION



 =================
 Timing Statistics
 =================
  
 Total Used :                     CPU=        1.86      System=        0.11     Elapsed=        2.72

 Calls  Section                     ( Mean, Percentage )
 ---------------------------------------------------------------------------------------------------
     3  ><      ................      0.00    0.23             0.00    0.03             0.00    0.18
     1  INIT    ................      0.50   26.73             0.00    3.49             0.95   34.74
     1  GEOMET  ................      0.07    3.79             0.02   22.93             0.10    3.54
     1  FRAGM   ................      0.02    1.32             0.00    3.84             0.03    1.28
     1  INPUTA  ................      0.00    0.16             0.00    0.00             0.00    0.11
     1  ATDEN   ................      0.00    0.04             0.00    3.80             0.00    0.17
     1  MAINSY  ................      0.03    1.46             0.00    0.20             0.03    1.06
     1  SYMFIT  ................      0.00    0.09             0.00    0.10             0.00    0.07
     1  CORORT  ................      0.00    0.08             0.00    0.00             0.00    0.06
     1  SYMORB  ................      0.00    0.17             0.00    0.00             0.00    0.12
     1  FITINT  ................      0.03    1.42             0.00    4.06             0.03    1.13
     1  CLSMAT  ................      0.00    0.14             0.00    0.00             0.00    0.10
     1  ORTHON  ................      0.02    1.24             0.00    0.00             0.02    0.85
     1  GENPT   ................      0.04    2.14             0.00    0.00             0.04    1.48
     1  PTBAS   ................      0.02    1.19             0.00    0.00             0.02    0.87
     6  FOCKY   ................      0.11   34.88             0.01   41.58             0.14   31.28
     6  FOCKTR  ................      0.05   16.61             0.00   12.55             0.07   15.51
     6  SDIIS   ................      0.00    1.51             0.00    3.22             0.01    1.78
     1  COREPS  ................      0.04    2.04             0.00    0.14             0.05    1.70
     1  POPAN   ................      0.05    2.89             0.00    4.06             0.07    2.69
     1  DEBYE   ................      0.00    0.19             0.00    0.00             0.00    0.13
     1  EXIT PROCEDURE .........      0.03    1.67             0.00    0.00             0.03    1.16


 Currently Open Files (EXIT00)
 ====================

 Unit    Access Format  Status   Type       Ident (file)
 -------------------------------------------------------
   3      SEQ    FORM   TRANSP  NORMAL      LOGFILE
                                          ( logfile )


 Buffered I/O statistics
 =======================
 Memory available:                     67108864
 Number of records fitting in memory:     16131
 Input :   0.2% of                        35797  *4k bytes
 Output:  12.1% of                         2144  *4k bytes
 Records from serial files evicted:           0
                    others evicted:           0
 Hash table lookups:      73608 with          0 conflicts (  0.00%)

 ***************************************************************************************************
 (LOGFILE)
 <Mar23-2019> <13:46:25>  ADF 2018  RunTime: Mar23-2019 13:46:25  Nodes: 1  Procs: 1
 <Mar23-2019> <13:46:25>  Neon (QZ, all electron, 8S 5P 2D 2F)
 <Mar23-2019> <13:46:25>  RunType   : CREATE
 <Mar23-2019> <13:46:25>  Net Charge: 0 (Nuclei minus Electrons)
 <Mar23-2019> <13:46:25>  Symmetry  : ATOM
  Coordinates
    Atom         X           Y           Z   (Angstrom)
    1.Ne        0.000000    0.000000    0.000000
 <Mar23-2019> <13:46:25>  >>>> CORORT
 <Mar23-2019> <13:46:25>  >>>> FITINT
 <Mar23-2019> <13:46:25>  >>>> CLSMAT
 <Mar23-2019> <13:46:25>  >>>> ORTHON
 <Mar23-2019> <13:46:25>  >>>> GENPT
 <Mar23-2019> <13:46:25>  Block Length=  89
 <Mar23-2019> <13:46:25>  >>>> PTBAS
 <Mar23-2019> <13:46:25>  >>>> CYCLE
 <Mar23-2019> <13:46:25>  CalcFitR12Fit
 <Mar23-2019> <13:46:25>  CalcFitCoeff
 <Mar23-2019> <13:46:25>              |Error|         MaxErr       Wt(A-DIIS)
 <Mar23-2019> <13:46:25>      1      0.00000000      0.00000000
 <Mar23-2019> <13:46:25>      2     18.63971113      5.82822602    100.0
 <Mar23-2019> <13:46:25>      3      5.80725476      4.95060660    100.0
 <Mar23-2019> <13:46:25>      4      1.33800376      0.47004516    100.0
 <Mar23-2019> <13:46:25>      5      0.72585989      0.29648606    100.0
 <Mar23-2019> <13:46:26>      6      0.37844960      0.14971251    100.0
 <Mar23-2019> <13:46:26>      7      0.17428766      0.07089615     70.6
 <Mar23-2019> <13:46:26>      8      0.06419050      0.02563224     24.9
 <Mar23-2019> <13:46:26>      9      0.00815409      0.00330017      2.3
 <Mar23-2019> <13:46:26>     10      0.00011492      0.00004573      0.0
 <Mar23-2019> <13:46:26>     11      0.00000084      0.00000036      0.0
 <Mar23-2019> <13:46:26>     12      0.00000002      0.00000001      0.0
 <Mar23-2019> <13:46:26>     13      0.00000000      0.00000000      0.0
 <Mar23-2019> <13:46:26>  SCF converged
 <Mar23-2019> <13:46:26>     14      0.00000000      0.00000000      0.0
 <Mar23-2019> <13:46:26>  >>>> POPAN
 <Mar23-2019> <13:46:26>  >>>> DEBYE
 <Mar23-2019> <13:46:26>  NORMAL TERMINATION
 <Mar23-2019> <13:46:26>  END
 <Mar23-2019> <13:46:27>  ADF 2018  RunTime: Mar23-2019 13:46:27  Nodes: 1  Procs: 4
 <Mar23-2019> <13:46:27>  Ne
 <Mar23-2019> <13:46:27>  RunType   : SINGLE POINT
 <Mar23-2019> <13:46:27>  Net Charge: 0 (Nuclei minus Electrons)
 <Mar23-2019> <13:46:27>  Symmetry  : ATOM
 <Mar23-2019> <13:46:27>  >>>> FRAGM
  Coordinates
    Atom         X           Y           Z   (Angstrom)
    1.Ne        0.000000    0.000000    0.000000
 <Mar23-2019> <13:46:27>  >>>> CORORT
 <Mar23-2019> <13:46:27>  >>>> FITINT
 <Mar23-2019> <13:46:27>  >>>> CLSMAT
 <Mar23-2019> <13:46:27>  >>>> ORTHON
 <Mar23-2019> <13:46:27>  >>>> GENPT
 <Mar23-2019> <13:46:28>  Block Length=  64
 <Mar23-2019> <13:46:28>  >>>> PTBAS
 <Mar23-2019> <13:46:28>  >>>> CYCLE
 <Mar23-2019> <13:46:28>  CalcFitR12Fit
 <Mar23-2019> <13:46:28>  CalcFitCoeff
 <Mar23-2019> <13:46:28>  Orbital Data from active fragment used
 <Mar23-2019> <13:46:28>              |Error|         MaxErr       Wt(A-DIIS)
 <Mar23-2019> <13:46:28>      1      0.00207191      0.00073422
 <Mar23-2019> <13:46:28>      2      0.00107774      0.00042472    100.0
 <Mar23-2019> <13:46:29>      3      0.00054351      0.00021133    100.0
 <Mar23-2019> <13:46:29>      4      0.00026268      0.00010248      0.0
 <Mar23-2019> <13:46:29>      5      0.00000012      0.00000009      0.0
 <Mar23-2019> <13:46:29>  SCF converged
 <Mar23-2019> <13:46:29>      6      0.00000001      0.00000000      0.0
 <Mar23-2019> <13:46:29>   Total energy       -128.55093575 a.u.
 <Mar23-2019> <13:46:29>  >>>> POPAN
 <Mar23-2019> <13:46:29>  >>>> DEBYE
 <Mar23-2019> <13:46:29>  NORMAL TERMINATION
 <Mar23-2019> <13:46:29>  END
