[Molden Format]
[Atoms] (Angs)
  C      1    6     -0.23156663     -0.40139629      0.00000000
  O      2    8     -1.23145105      0.27789305     -0.00000000
  H      3    1     -0.30922657     -1.50540499      0.00000000
  C      4    6      1.16658028      0.14878812      0.00000000
  H      5    1      1.14763502      1.23599553     -0.00000000
  H      6    1      1.70155903     -0.21904296      0.87844032
  H      7    1      1.70155903     -0.21904296     -0.87844032
[GTO]
1    0
S    8    1.000000
   3.39800000E+04    9.20400000E-05 
   5.08900000E+03    6.99910000E-04 
   1.15700000E+03    3.69300000E-03 
   3.26600000E+02    1.51818100E-02 
   1.06100000E+02    5.21403500E-02 
   3.81100000E+01    1.38274510E-01 
   1.47500000E+01    2.68772030E-01 
   6.03500000E+00    2.28418390E-01 
S    8    1.000000
   3.39800000E+04    3.40000000E-07 
   5.08900000E+03   -1.35000000E-06 
   3.26600000E+02   -5.90100000E-05 
   1.06100000E+02   -2.61180000E-04 
   3.81100000E+01   -2.90391000E-03 
   1.47500000E+01   -1.22067500E-02 
   6.03500000E+00   -5.66064900E-02 
   2.53000000E+00   -7.18816800E-02 
S    1    1.000000
   7.35500000E-01    1.00000000E+00 
S    1    1.000000
   2.90500000E-01    1.00000000E+00 
S    1    1.000000
   1.11100000E-01    1.00000000E+00 
P    3    1.000000
   3.45100000E+01    5.37800000E-03 
   7.91500000E+00    3.61320000E-02 
   2.36800000E+00    1.42493000E-01 
P    1    1.000000
   8.13200000E-01    1.00000000E+00 
P    1    1.000000
   2.89000000E-01    1.00000000E+00 
P    1    1.000000
   1.00700000E-01    1.00000000E+00 
D    1    1.000000
   1.84800000E+00    1.00000000E+00 
D    1    1.000000
   6.49000000E-01    1.00000000E+00 
D    1    1.000000
   2.28000000E-01    1.00000000E+00 
F    1    1.000000
   1.41900000E+00    1.00000000E+00 
F    1    1.000000
   4.85000000E-01    1.00000000E+00 
G    1    1.000000
   1.01100000E+00    1.00000000E+00 

2    0
S    8    1.000000
   6.14200000E+04    9.15600000E-05 
   9.19900000E+03    6.97330000E-04 
   2.09100000E+03    3.67901000E-03 
   5.90900000E+02    1.50670600E-02 
   1.92300000E+02    5.16674200E-02 
   6.93200000E+01    1.35843520E-01 
   2.69700000E+01    2.60704420E-01 
   1.11000000E+01    1.96456920E-01 
S    8    1.000000
   6.14200000E+04    6.10000000E-07 
   9.19900000E+03   -1.80000000E-06 
   5.90900000E+02   -1.08610000E-04 
   1.92300000E+02   -4.94110000E-04 
   6.93200000E+01   -5.43605000E-03 
   2.69700000E+01   -2.33243000E-02 
   1.11000000E+01   -1.03719380E-01 
   4.68200000E+00   -1.10942760E-01 
S    1    1.000000
   1.42800000E+00    1.00000000E+00 
S    1    1.000000
   5.54700000E-01    1.00000000E+00 
S    1    1.000000
   2.06700000E-01    1.00000000E+00 
P    3    1.000000
   6.34200000E+01    6.04400000E-03 
   1.46600000E+01    4.17990000E-02 
   4.45900000E+00    1.61143000E-01 
P    1    1.000000
   1.53100000E+00    1.00000000E+00 
P    1    1.000000
   5.30200000E-01    1.00000000E+00 
P    1    1.000000
   1.75000000E-01    1.00000000E+00 
D    1    1.000000
   3.77500000E+00    1.00000000E+00 
D    1    1.000000
   1.30000000E+00    1.00000000E+00 
D    1    1.000000
   4.44000000E-01    1.00000000E+00 
F    1    1.000000
   2.66600000E+00    1.00000000E+00 
F    1    1.000000
   8.59000000E-01    1.00000000E+00 
G    1    1.000000
   1.84600000E+00    1.00000000E+00 

3    0
S    3    1.000000
   8.26400000E+01    2.00600000E-03 
   1.24100000E+01    1.53430000E-02 
   2.82400000E+00    7.55790000E-02 
S    1    1.000000
   7.97700000E-01    1.00000000E+00 
S    1    1.000000
   2.58100000E-01    1.00000000E+00 
S    1    1.000000
   8.98900000E-02    1.00000000E+00 
P    1    1.000000
   2.29200000E+00    1.00000000E+00 
P    1    1.000000
   8.38000000E-01    1.00000000E+00 
P    1    1.000000
   2.92000000E-01    1.00000000E+00 
D    1    1.000000
   2.06200000E+00    1.00000000E+00 
D    1    1.000000
   6.62000000E-01    1.00000000E+00 
F    1    1.000000
   1.39700000E+00    1.00000000E+00 

4    0
S    8    1.000000
   3.39800000E+04    9.20400000E-05 
   5.08900000E+03    6.99910000E-04 
   1.15700000E+03    3.69300000E-03 
   3.26600000E+02    1.51818100E-02 
   1.06100000E+02    5.21403500E-02 
   3.81100000E+01    1.38274510E-01 
   1.47500000E+01    2.68772030E-01 
   6.03500000E+00    2.28418390E-01 
S    8    1.000000
   3.39800000E+04    3.40000000E-07 
   5.08900000E+03   -1.35000000E-06 
   3.26600000E+02   -5.90100000E-05 
   1.06100000E+02   -2.61180000E-04 
   3.81100000E+01   -2.90391000E-03 
   1.47500000E+01   -1.22067500E-02 
   6.03500000E+00   -5.66064900E-02 
   2.53000000E+00   -7.18816800E-02 
S    1    1.000000
   7.35500000E-01    1.00000000E+00 
S    1    1.000000
   2.90500000E-01    1.00000000E+00 
S    1    1.000000
   1.11100000E-01    1.00000000E+00 
P    3    1.000000
   3.45100000E+01    5.37800000E-03 
   7.91500000E+00    3.61320000E-02 
   2.36800000E+00    1.42493000E-01 
P    1    1.000000
   8.13200000E-01    1.00000000E+00 
P    1    1.000000
   2.89000000E-01    1.00000000E+00 
P    1    1.000000
   1.00700000E-01    1.00000000E+00 
D    1    1.000000
   1.84800000E+00    1.00000000E+00 
D    1    1.000000
   6.49000000E-01    1.00000000E+00 
D    1    1.000000
   2.28000000E-01    1.00000000E+00 
F    1    1.000000
   1.41900000E+00    1.00000000E+00 
F    1    1.000000
   4.85000000E-01    1.00000000E+00 
G    1    1.000000
   1.01100000E+00    1.00000000E+00 

5    0
S    3    1.000000
   8.26400000E+01    2.00600000E-03 
   1.24100000E+01    1.53430000E-02 
   2.82400000E+00    7.55790000E-02 
S    1    1.000000
   7.97700000E-01    1.00000000E+00 
S    1    1.000000
   2.58100000E-01    1.00000000E+00 
S    1    1.000000
   8.98900000E-02    1.00000000E+00 
P    1    1.000000
   2.29200000E+00    1.00000000E+00 
P    1    1.000000
   8.38000000E-01    1.00000000E+00 
P    1    1.000000
   2.92000000E-01    1.00000000E+00 
D    1    1.000000
   2.06200000E+00    1.00000000E+00 
D    1    1.000000
   6.62000000E-01    1.00000000E+00 
F    1    1.000000
   1.39700000E+00    1.00000000E+00 

6    0
S    3    1.000000
   8.26400000E+01    2.00600000E-03 
   1.24100000E+01    1.53430000E-02 
   2.82400000E+00    7.55790000E-02 
S    1    1.000000
   7.97700000E-01    1.00000000E+00 
S    1    1.000000
   2.58100000E-01    1.00000000E+00 
S    1    1.000000
   8.98900000E-02    1.00000000E+00 
P    1    1.000000
   2.29200000E+00    1.00000000E+00 
P    1    1.000000
   8.38000000E-01    1.00000000E+00 
P    1    1.000000
   2.92000000E-01    1.00000000E+00 
D    1    1.000000
   2.06200000E+00    1.00000000E+00 
D    1    1.000000
   6.62000000E-01    1.00000000E+00 
F    1    1.000000
   1.39700000E+00    1.00000000E+00 

7    0
S    3    1.000000
   8.26400000E+01    2.00600000E-03 
   1.24100000E+01    1.53430000E-02 
   2.82400000E+00    7.55790000E-02 
S    1    1.000000
   7.97700000E-01    1.00000000E+00 
S    1    1.000000
   2.58100000E-01    1.00000000E+00 
S    1    1.000000
   8.98900000E-02    1.00000000E+00 
P    1    1.000000
   2.29200000E+00    1.00000000E+00 
P    1    1.000000
   8.38000000E-01    1.00000000E+00 
P    1    1.000000
   2.92000000E-01    1.00000000E+00 
D    1    1.000000
   2.06200000E+00    1.00000000E+00 
D    1    1.000000
   6.62000000E-01    1.00000000E+00 
F    1    1.000000
   1.39700000E+00    1.00000000E+00 

[MO]
Sym=X
Ene= -20.556587
Spin=Alpha
Occup=1
     1   -2.340210578727e-06
     2    5.279108477334e-05
     3   -1.614779729706e-04
     4    8.027481813672e-04
     5   -9.737219002092e-04
     6   -2.617324070915e-05
     7    1.754455279805e-05
     8    4.007296042920e-16
     9   -5.356295358417e-05
    10    5.538430926887e-05
    11   -4.358084304692e-16
    12   -1.246856637194e-03
    13    4.995288670742e-04
    14   -7.351692446136e-15
    15    1.163293375452e-05
    16   -8.128897790774e-04
    17    9.136547884734e-16
    18    3.084367519546e-05
    19   -2.327308784667e-16
    20   -6.705805524597e-16
    21   -1.090769974432e-05
    22    2.861411941655e-05
    23   -2.037039080398e-04
    24    1.386658579709e-15
    25    4.003084160733e-15
    26    1.265935879287e-04
    27   -3.034799940033e-04
    28   -1.394598219959e-04
    29   -1.898242048244e-15
    30    6.130025746627e-15
    31    2.381154664807e-04
    32   -9.129714941449e-04
    33    6.611317146446e-16
    34   -5.725283443993e-06
    35    1.046773725983e-05
    36    6.539987046120e-17
    37    4.588806285706e-17
    38    6.123849100268e-06
    39    9.694290211538e-06
    40    1.595557233292e-15
    41    1.597369544710e-04
    42   -9.797170426014e-05
    43    4.158420851333e-15
    44   -1.185183322875e-16
    45   -5.630588191019e-05
    46    2.310277018921e-04
    47    4.327732093532e-06
    48   -1.975150601681e-16
    49   -1.364989359336e-15
    50   -6.452728841828e-06
    51    1.726698337285e-05
    52    1.047238978156e-16
    53   -4.850908984531e-16
    54   -2.653786527948e-05
    55   -2.966094072218e-05
    56    5.863205234734e-01
    57   -4.472658007713e-01
    58    1.863204807837e-02
    59   -4.612289268979e-03
    60    1.679460015513e-03
    61    1.263171791808e-03
    62   -8.436325009236e-04
    63    4.494803809991e-16
    64   -2.418336364236e-04
    65    1.541679912891e-04
    66   -7.161273556478e-16
    67   -3.409372880333e-04
    68    2.992410227023e-04
    69    5.707412289531e-16
    70    2.524205607116e-04
    71    1.490357012334e-05
    72   -1.894542036277e-15
    73   -3.919824560027e-05
    74   -8.820492231193e-17
    75   -2.414679240560e-16
    76    3.580726196607e-05
    77   -8.988709291460e-05
    78   -1.322286372257e-04
    79   -3.261969407897e-16
    80    5.707326659794e-16
    81   -6.431848870889e-05
    82    1.667263984287e-04
    83   -6.318994265621e-05
    84    1.593387558398e-16
    85   -6.315723823678e-17
    86    9.847304891888e-05
    87    1.432836309001e-05
    88    3.968453681905e-16
    89   -1.449138250409e-05
    90    1.126838770135e-05
    91    2.217428725986e-16
    92    1.789081815367e-17
    93   -1.169512619818e-05
    94   -2.991056952866e-05
    95   -4.590635082779e-16
    96   -2.438507537053e-05
    97    7.540796962701e-06
    98   -1.333571716182e-16
    99   -3.006773203966e-16
   100    2.187933104098e-05
   101   -3.685447547716e-05
   102    6.608888497459e-06
   103   -8.224511246827e-18
   104    1.075068741947e-16
   105   -4.745300448652e-06
   106    1.069920081132e-05
   107    4.599195012455e-17
   108   -2.756304767370e-18
   109   -1.106709178447e-05
   110   -1.343575807467e-05
   111   -5.056063888752e-06
   112    4.913218174957e-06
   113    8.653827190507e-05
   114   -3.067546887519e-04
   115   -7.024662962097e-06
   116    1.350763072271e-05
   117   -1.132230171440e-15
   118    1.495470417330e-05
   119   -4.238739407777e-05
   120    4.816980643077e-15
   121   -2.843442787555e-04
   122    4.249768709246e-05
   123    5.579525931666e-15
   124   -5.522088241594e-06
   125    1.557113570955e-16
   126   -5.559413862252e-16
   127   -2.898640040552e-07
   128    4.327833852717e-06
   129    1.592594843223e-05
   130   -1.732915060634e-16
   131    5.469897914918e-15
   132    1.516272551636e-05
   133   -3.471636946795e-05
   134   -7.061121072525e-16
   135   -9.284760512181e-06
   136    8.327919077923e-07
   137   -1.135041159049e-15
   138    5.523440968552e-17
   139    5.368059718203e-06
   140    6.626630151836e-07
   141    1.816034277675e-06
   142    4.837948024013e-07
   143   -7.222243323580e-05
   144    6.895790030629e-04
   145    8.224624524958e-04
   146    5.500529253763e-06
   147   -5.860767350271e-06
   148    7.906866083022e-16
   149   -3.286563465730e-07
   150    8.932531737073e-05
   151   -3.955170584018e-15
   152   -2.413098250649e-04
   153   -3.993271343333e-04
   154    2.264814789110e-14
   155   -3.746613392448e-04
   156    1.848671415694e-04
   157    1.838971050109e-15
   158   -7.122619463617e-06
   159   -1.600626513723e-16
   160    1.803427694757e-15
   161   -3.771972682242e-06
   162   -7.699688100924e-06
   163    1.485766007006e-05
   164    5.738851505555e-16
   165   -1.487786775018e-14
   166   -3.429924584231e-05
   167    4.612579190616e-05
   168    3.928635765537e-04
   169    2.898098029800e-15
   170   -2.564800687100e-14
   171    3.564196905561e-04
   172    8.468196983396e-06
   173    1.091395599790e-16
   174    4.076275605168e-06
   175   -8.529565766977e-06
   176   -1.014377011479e-15
   177   -1.124599291322e-16
   178    2.985066237710e-06
   179   -1.397361338701e-05
   180   -1.148095561763e-15
   181    2.481220983598e-05
   182    2.147477597322e-05
   183   -6.154059433003e-15
   184   -1.030329775897e-14
   185    1.499738554709e-06
   186    7.074581284841e-05
   187   -5.790881033375e-06
   188   -1.115242541871e-15
   189   -7.441472432831e-16
   190   -9.587761751255e-06
   191   -7.466870871050e-06
   192   -2.679996151487e-15
   193    2.079487061333e-16
   194   -8.788105452337e-06
   195   -1.790822304957e-06
   196   -8.638605127261e-06
   197    1.253777287437e-04
   198    3.741767461980e-04
   199   -1.075486429419e-04
   200    4.329388001479e-06
   201   -1.624237759446e-05
   202   -7.743596379622e-17
   203   -1.460360090304e-05
   204    2.008264173322e-05
   205   -7.032564101171e-16
   206   -1.870974846208e-05
   207   -4.713257652345e-05
   208    1.120981867715e-14
   209    1.660707627583e-06
   210   -4.652304639993e-16
   211    1.453589005618e-16
   212   -6.640181525661e-06
   213    4.710700183863e-06
   214    9.933272618737e-06
   215    2.430997264114e-15
   216   -3.278341112165e-15
   217    6.288689023295e-05
   218   -7.247512351792e-07
   219   -7.029943592990e-16
   220   -1.530006294150e-06
   221   -7.176691203416e-06
   222   -5.472463878808e-16
   223   -1.837067638036e-16
   224    2.806939089662e-06
   225   -1.077577722527e-05
   226    1.143362228927e-06
   227   -3.196792956689e-06
   228   -4.435788757307e-04
   229    8.591536546150e-05
   230   -3.880191331888e-06
   231    2.992868529906e-07
   232   -2.885136290979e-06
   233    2.019154176171e-05
   234   -2.266012907907e-06
   235    1.778064073255e-05
   236    1.625386734492e-04
   237   -1.214876140718e-04
   238   -1.258891195128e-05
   239   -6.328944963604e-06
   240   -8.579982180874e-07
   241   -1.752175874893e-06
   242    1.673094725500e-06
   243   -7.942213009295e-08
   244    3.627194712038e-05
   245   -1.845457195420e-05
   246    2.933585941681e-06
   247   -1.374545694938e-05
   248    3.632899727836e-06
   249   -6.007907431061e-06
   250    1.465607348006e-06
   251    2.679491569540e-06
   252    2.935340667655e-06
   253    4.204182457002e-06
   254   -2.884343917911e-06
   255    1.095770138174e-06
   256    1.143362229340e-06
   257   -3.196792949017e-06
   258   -4.435788756721e-04
   259    8.591536545629e-05
   260   -3.880191330973e-06
   261    2.992868564673e-07
   262    2.885136290253e-06
   263    2.019154175356e-05
   264   -2.266012919255e-06
   265   -1.778064072446e-05
   266    1.625386734318e-04
   267   -1.214876140908e-04
   268    1.258891196844e-05
   269   -6.328944963789e-06
   270    8.579982180190e-07
   271    1.752175875414e-06
   272    1.673094724658e-06
   273   -7.942213108280e-08
   274    3.627194712715e-05
   275    1.845457194632e-05
   276   -2.933585953595e-06
   277   -1.374545693933e-05
   278    3.632899734403e-06
   279    6.007907432786e-06
   280    1.465607346690e-06
   281    2.679491567201e-06
   282   -2.935340664951e-06
   283   -4.204182455036e-06
   284   -2.884343918982e-06
   285    1.095770138039e-06
Sym=X
Ene= -11.334854
Spin=Alpha
Occup=1
     1    6.265645409072e-01
     2   -4.072951879703e-01
     3    1.830360365927e-02
     4   -4.138284893287e-03
     5   -1.124810743449e-03
     6    3.869509113327e-05
     7   -6.713177969221e-05
     8   -1.709209263949e-16
     9   -2.188762827170e-04
    10    3.720903449319e-04
    11   -1.046366719509e-15
    12   -1.318743632804e-03
    13    2.007930798343e-03
    14    1.227908850580e-14
    15   -8.316688121171e-05
    16    2.880516559230e-04
    17    3.239379409771e-15
    18    5.000875439631e-05
    19    1.931118652710e-17
    20    2.884214087769e-16
    21    2.860904612005e-05
    22   -9.443754008450e-05
    23   -9.011254748077e-04
    24   -1.722499731757e-16
    25   -5.751942366668e-16
    26    3.945192353601e-04
    27   -4.303823499109e-04
    28    6.810977110457e-04
    29    3.897223127803e-15
    30    1.404922589329e-14
    31    3.362724741025e-04
    32   -1.851608757766e-04
    33   -1.835342784479e-16
    34    5.192112243039e-05
    35   -5.874237103680e-05
    36   -1.390984866661e-16
    37   -7.320337721649e-16
    38    1.001672257627e-04
    39    3.302272179232e-04
    40   -4.066845525367e-15
    41    1.677120869980e-04
    42   -6.989727821034e-05
    43    1.378042414985e-15
    44    2.065595826877e-15
    45    3.368288249611e-06
    46    4.534106944114e-04
    47    9.374408381788e-05
    48   -7.242847441865e-16
    49   -6.682910488731e-16
    50   -3.256035505213e-05
    51    4.447516492687e-05
    52    2.017443486133e-16
    53    1.245299501073e-15
    54   -6.007222014512e-05
    55   -7.670227845360e-05
    56   -2.040414261394e-04
    57    3.091500107474e-04
    58    4.942018276830e-04
    59   -1.045326050718e-03
    60    4.291261446834e-05
    61    1.464929851880e-04
    62   -9.342148650857e-05
    63    1.732801836152e-16
    64    2.373650477191e-04
    65   -1.905830469582e-04
    66    4.306365434014e-16
    67   -4.661199001966e-04
    68    4.747626531345e-04
    69   -3.691603074060e-15
    70    5.751547725440e-05
    71   -3.741021556220e-05
    72   -4.594583381279e-15
    73   -2.602358057322e-05
    74   -2.772812744680e-16
    75   -4.613457773429e-16
    76    8.693630968452e-06
    77   -3.313560502749e-05
    78    4.629351891332e-05
    79    8.934030512677e-16
    80    7.927895793520e-16
    81    3.279689312183e-05
    82   -2.904011436617e-05
    83    7.913415177021e-05
    84   -4.567386185664e-15
    85    6.020733019268e-16
    86   -3.396330674166e-05
    87    2.941958005466e-04
    88   -5.163430624709e-17
    89   -2.779669302666e-05
    90    2.098622792434e-05
    91    4.971016999137e-17
    92   -3.105575494447e-17
    93   -1.371177856660e-05
    94   -5.537663837789e-05
    95    6.529751877180e-16
    96    1.062082877191e-05
    97   -2.316844885118e-05
    98   -7.420790469063e-17
    99    1.222909905648e-15
   100    2.885502055104e-05
   101   -3.015902452861e-06
   102    2.731157756854e-05
   103    1.406125315896e-17
   104   -3.067317233064e-17
   105   -1.968015689493e-05
   106    4.307072118102e-05
   107    1.418155251698e-16
   108    3.919868087118e-16
   109   -5.662123721038e-05
   110   -5.488286325454e-05
   111    1.097797365793e-04
   112   -1.218414465801e-04
   113    3.309342801390e-03
   114    2.567965984305e-04
   115   -1.055246861540e-05
   116    4.022292928140e-06
   117    3.371923358622e-16
   118    4.017876267468e-05
   119    2.678123402774e-05
   120   -1.347391654286e-15
   121    1.823756645313e-04
   122    1.312903021855e-03
   123    4.641703327826e-15
   124   -4.456572044202e-06
   125   -1.527599138042e-16
   126    2.916233190490e-17
   127   -4.363266994782e-05
   128    4.621715740359e-06
   129   -1.228055552791e-04
   130    2.356929526833e-16
   131    5.947480137608e-17
   132   -6.678118747014e-05
   133    5.952248257354e-05
   134    1.773654855584e-16
   135   -6.284666038788e-06
   136   -5.482789627462e-05
   137   -6.345720980585e-17
   138    9.035203833666e-17
   139   -2.244797398079e-05
   140   -7.255521415247e-05
   141    2.228386078172e-03
   142   -1.410588404131e-03
   143    4.250112424687e-04
   144   -1.337719836674e-03
   145   -2.485985605432e-04
   146   -8.409125724487e-05
   147   -3.097419292749e-05
   148   -1.656146525713e-15
   149   -6.014588375428e-05
   150   -2.551036121420e-05
   151    7.584842076516e-15
   152   -1.115676194225e-03
   153   -8.946714003716e-04
   154    9.242423699712e-14
   155   -1.364382958987e-04
   156   -4.183123229853e-05
   157    1.090039534452e-14
   158   -3.182957688859e-05
   159   -9.759234626787e-16
   160   -8.921057144298e-16
   161    4.098931037878e-05
   162    2.445622553007e-05
   163    1.077118810795e-04
   164    1.501731351373e-14
   165   -4.423740104835e-15
   166   -6.952017612464e-05
   167   -3.922358989047e-05
   168   -1.682961536603e-04
   169    3.812226182636e-14
   170   -2.726369352464e-14
   171    3.699748864313e-06
   172    1.290292667130e-04
   173    7.692017367091e-16
   174    1.278611291841e-06
   175    2.315841656525e-06
   176    1.242836620430e-16
   177   -3.917283859079e-16
   178   -9.675116598572e-06
   179   -6.741677242083e-06
   180    1.211124903318e-14
   181   -9.609514478632e-05
   182   -1.596420144651e-05
   183   -9.012176448902e-16
   184   -2.876066385205e-15
   185    2.406216563015e-04
   186    2.117139314102e-04
   187    4.176614052711e-06
   188    2.954002416077e-15
   189   -2.537328698115e-15
   190   -3.921128582511e-05
   191    2.065379868904e-05
   192    1.043548614424e-15
   193    7.733854946518e-16
   194   -1.735493582202e-05
   195    5.320053184821e-05
   196   -1.992082687942e-06
   197    4.281135534392e-05
   198    1.145101574100e-03
   199    1.879216023067e-05
   200   -3.903844645500e-05
   201    1.426567074389e-05
   202    5.507475456288e-16
   203    2.187597887172e-04
   204   -1.064726245206e-04
   205   -2.450679292253e-15
   206   -1.790057534410e-06
   207   -5.504780895589e-04
   208    1.021020391469e-14
   209    8.262349554915e-06
   210    7.169730763764e-16
   211    6.428280208687e-16
   212    9.385269843902e-07
   213   -1.841306509279e-05
   214   -4.791890637393e-05
   215   -1.849815771751e-15
   216   -1.190845446960e-15
   217   -5.549165513657e-05
   218   -1.003571611772e-04
   219    4.333755136167e-16
   220    7.910450891876e-06
   221    2.936818794596e-06
   222    8.791283226450e-16
   223   -1.804991236514e-16
   224   -2.712897213367e-05
   225   -7.680688554412e-06
   226    1.749061223441e-06
   227    2.148516506661e-05
   228    7.256296893689e-04
   229    4.638669381559e-05
   230   -1.580958789731e-05
   231   -1.406472214290e-05
   232    1.386236487105e-05
   233    7.203194124886e-05
   234    7.152491801647e-05
   235   -8.382711275335e-05
   236   -1.303111585244e-04
   237    1.191952573089e-04
   238   -2.217726798089e-04
   239    5.574261426192e-06
   240   -7.885343617172e-06
   241   -1.839002959888e-06
   242   -7.748266407058e-06
   243   -3.423798891680e-06
   244    4.651683538551e-05
   245   -8.202065849309e-06
   246   -3.318977267338e-05
   247   -2.556115482832e-05
   248   -1.192636774415e-05
   249   -1.351640734643e-05
   250    1.057227069634e-05
   251    3.274350279566e-06
   252    5.325914511684e-06
   253    6.058886283463e-06
   254    1.934428351410e-06
   255   -1.351944176597e-05
   256    1.749061220311e-06
   257    2.148516508522e-05
   258    7.256296895728e-04
   259    4.638669382028e-05
   260   -1.580958789310e-05
   261   -1.406472214505e-05
   262   -1.386236487225e-05
   263    7.203194122555e-05
   264    7.152491803147e-05
   265    8.382711276533e-05
   266   -1.303111585609e-04
   267    1.191952573361e-04
   268    2.217726798668e-04
   269    5.574261424944e-06
   270    7.885343616864e-06
   271    1.839002960627e-06
   272   -7.748266406914e-06
   273   -3.423798892466e-06
   274    4.651683538436e-05
   275    8.202065837074e-06
   276    3.318977268292e-05
   277   -2.556115482477e-05
   278   -1.192636775339e-05
   279    1.351640734451e-05
   280    1.057227069575e-05
   281    3.274350280084e-06
   282   -5.325914511350e-06
   283   -6.058886285641e-06
   284    1.934428352186e-06
   285   -1.351944176472e-05
Sym=X
Ene= -11.241232
Spin=Alpha
Occup=1
     1   -2.360630587314e-03
     2    1.590429937360e-03
     3    9.840768581805e-05
     4    3.964869128501e-04
     5    2.157896760600e-04
     6    5.887158419106e-05
     7    2.428172333915e-05
     8   -9.046971123081e-16
     9    1.391057894632e-04
    10    5.916182499123e-05
    11    5.688452621677e-15
    12    1.889358753228e-03
    13    1.149175976452e-03
    14   -2.268283420793e-14
    15    2.364509781029e-04
    16    3.581887578004e-04
    17   -1.511259243832e-16
    18   -2.593947082438e-05
    19   -6.704350480813e-17
    20   -1.711021376530e-16
    21    1.134995105292e-05
    22    7.963273594154e-06
    23    1.553521455154e-05
    24    1.113150370491e-15
    25    3.967134924398e-16
    26    1.322760864941e-04
    27    1.315897709607e-04
    28    1.028499050248e-05
    29   -1.504225334007e-14
    30   -1.154670612664e-14
    31    2.446244309506e-04
    32    5.145328714069e-04
    33   -2.631977006674e-16
    34   -5.965857329025e-06
    35   -6.370588749416e-06
    36    1.709452247995e-16
    37    3.568930971609e-16
    38    1.246711613801e-05
    39    2.909542166239e-05
    40    5.906157453297e-15
    41   -8.904899167298e-05
    42   -5.994318964036e-05
    43   -1.986576864382e-15
    44   -5.751014898678e-17
    45   -1.643198420664e-06
    46   -3.013368904878e-04
    47   -1.107795186652e-05
    48    8.332025932915e-16
    49    9.591462281529e-17
    50    1.410630879301e-05
    51    6.075522612934e-07
    52   -9.095393200805e-16
    53   -8.657430580262e-16
    54   -8.692220576504e-06
    55    5.623454745917e-05
    56    4.135973021426e-06
    57   -5.676835645936e-06
    58   -4.505991346961e-05
    59    5.014846716986e-04
    60    3.042176930303e-04
    61   -1.718828476506e-05
    62   -1.364317360257e-06
    63   -2.310551296597e-16
    64    4.575110728088e-05
    65   -5.338133413302e-06
    66    3.024746366295e-16
    67    4.569697643787e-05
    68   -2.648031972622e-04
    69    2.245652055695e-15
    70    1.877461865644e-05
    71   -1.399556317937e-04
    72    2.730731095687e-15
    73    6.669648846019e-07
    74   -1.394636571281e-16
    75   -9.299151211431e-18
    76    4.793000929370e-06
    77    2.863549949593e-06
    78   -1.393137742128e-05
    79    2.694754853560e-16
    80   -7.746201005935e-16
    81   -1.221395818719e-05
    82   -2.454600248762e-05
    83    6.145273191164e-05
    84    3.103490602257e-15
    85    7.606440569638e-16
    86   -1.393278794098e-04
    87   -1.099684517195e-04
    88   -2.956284746354e-16
    89   -5.974218618722e-06
    90    3.772332411537e-06
    91    1.840280192468e-16
    92    3.143057628806e-16
    93    5.535551477817e-06
    94    3.046172485166e-06
    95   -1.394895975121e-16
    96    3.530593220162e-05
    97   -9.259363322651e-06
    98    4.904655342617e-16
    99   -8.199139168985e-16
   100   -5.921299601258e-05
   101   -2.012705406947e-05
   102   -3.057088372451e-06
   103    6.372255331974e-17
   104   -1.777716750797e-16
   105    3.256980432829e-06
   106   -1.588567755192e-06
   107    1.097772699092e-16
   108    3.234257666237e-17
   109   -9.067915991155e-06
   110   -3.461923379005e-07
   111   -1.764933463133e-05
   112    2.211599791143e-04
   113    9.357153860815e-04
   114    1.592425679872e-04
   115    1.758397296752e-05
   116   -5.024186336007e-06
   117   -5.255622385520e-16
   118   -7.513758400067e-05
   119    1.363912683586e-04
   120    3.309331890418e-15
   121    1.314893483050e-04
   122    3.295363006107e-04
   123   -2.997320104516e-15
   124   -8.185403944674e-07
   125   -3.372457444328e-16
   126    4.464038332576e-16
   127   -3.951190025445e-06
   128   -1.074366919530e-05
   129    7.579791735140e-06
   130    1.813629677211e-15
   131    8.346052269126e-16
   132   -5.187577441788e-05
   133   -1.465542134169e-05
   134   -2.259294553632e-16
   135   -1.593422813817e-06
   136    1.118525401222e-05
   137   -1.490563780476e-16
   138    5.890394170148e-17
   139    7.789815291242e-06
   140   -9.344052540784e-06
   141    6.264141058505e-01
   142   -4.069734637517e-01
   143    2.093076401629e-02
   144   -9.988741839971e-03
   145   -1.297137020576e-03
   146    1.210758290009e-05
   147   -1.710773689095e-04
   148    3.971524460889e-15
   149   -1.288075492041e-04
   150    4.677424310272e-05
   151   -2.069740253209e-14
   152    2.324404894861e-04
   153    2.682490434282e-04
   154   -3.248019664641e-13
   155    1.076995864223e-04
   156   -1.998042990267e-05
   157   -8.601562828160e-14
   158    6.624219200665e-06
   159    3.398221645485e-15
   160   -9.103791532477e-16
   161   -3.708024428902e-06
   162   -6.551589313282e-06
   163   -9.935003427510e-05
   164   -5.324102161745e-14
   165    2.847421192061e-14
   166   -3.687878595374e-05
   167    9.125523117466e-06
   168   -7.073972913598e-05
   169   -1.190991614141e-13
   170    5.135358826548e-14
   171   -1.432822110853e-04
   172    1.174178898947e-04
   173   -1.634970099845e-15
   174    2.154638520235e-04
   175   -1.517633387666e-04
   176   -1.950642338627e-15
   177    2.374606045651e-15
   178   -3.999859565461e-05
   179   -2.004306307760e-04
   180   -1.475283382870e-14
   181   -3.288684366005e-04
   182    1.871122802387e-04
   183   -1.124713386660e-14
   184    1.455526508782e-14
   185   -2.721471977615e-05
   186    1.005746603303e-04
   187    2.698018641816e-06
   188   -5.153145163188e-15
   189    2.539662273884e-15
   190    2.366042202443e-05
   191   -2.608995972671e-05
   192   -1.043653011235e-15
   193    1.215639451285e-16
   194    2.541268480937e-05
   195    1.010020245620e-05
   196    1.096656081367e-04
   197    3.169379495616e-04
   198    1.742035543698e-03
   199    6.356707857652e-05
   200    1.857025914587e-05
   201   -4.547950295896e-05
   202    1.052235149056e-15
   203   -8.147345157064e-05
   204    8.621553988080e-06
   205   -4.212836947782e-15