
                                 *****************
                                 * O   R   C   A *
                                 *****************

                                            #,                                       
                                            ###                                      
                                            ####                                     
                                            #####                                    
                                            ######                                   
                                           ########,                                 
                                     ,,################,,,,,                         
                               ,,#################################,,                 
                          ,,##########################################,,             
                       ,#########################################, ''#####,          
                    ,#############################################,,   '####,        
                  ,##################################################,,,,####,       
                ,###########''''           ''''###############################       
              ,#####''   ,,,,##########,,,,          '''####'''          '####       
            ,##' ,,,,###########################,,,                        '##       
           ' ,,###''''                  '''############,,,                           
         ,,##''                                '''############,,,,        ,,,,,,###''
      ,#''                                            '''#######################'''  
     '                                                          ''''####''''         
             ,#######,   #######,   ,#######,      ##                                
            ,#'     '#,  ##    ##  ,#'     '#,    #''#        ######   ,####,        
            ##       ##  ##   ,#'  ##            #'  '#       #        #'  '#        
            ##       ##  #######   ##           ,######,      #####,   #    #        
            '#,     ,#'  ##    ##  '#,     ,#' ,#      #,         ##   #,  ,#        
             '#######'   ##     ##  '#######'  #'      '#     #####' # '####'        



                  #######################################################
                  #                        -***-                        #
                  #          Department of theory and spectroscopy      #
                  #    Directorship and core code : Frank Neese         #
                  #        Max Planck Institute fuer Kohlenforschung    #
                  #                Kaiser Wilhelm Platz 1               #
                  #                 D-45470 Muelheim/Ruhr               #
                  #                      Germany                        #
                  #                                                     #
                  #                  All rights reserved                #
                  #                        -***-                        #
                  #######################################################


                         Program Version 5.0.3 -  RELEASE  -


 With contributions from (in alphabetic order):
   Daniel Aravena         : Magnetic Suceptibility
   Michael Atanasov       : Ab Initio Ligand Field Theory (pilot matlab implementation)
   Alexander A. Auer      : GIAO ZORA, VPT2 properties, NMR spectrum
   Ute Becker             : Parallelization
   Giovanni Bistoni       : ED, misc. LED, open-shell LED, HFLD
   Martin Brehm           : Molecular dynamics
   Dmytro Bykov           : SCF Hessian
   Vijay G. Chilkuri      : MRCI spin determinant printing, contributions to CSF-ICE
   Dipayan Datta          : RHF DLPNO-CCSD density
   Achintya Kumar Dutta   : EOM-CC, STEOM-CC
   Dmitry Ganyushin       : Spin-Orbit,Spin-Spin,Magnetic field MRCI
   Miquel Garcia          : C-PCM and meta-GGA Hessian, CC/C-PCM, Gaussian charge scheme
   Yang Guo               : DLPNO-NEVPT2, F12-NEVPT2, CIM, IAO-localization
   Andreas Hansen         : Spin unrestricted coupled pair/coupled cluster methods
   Benjamin Helmich-Paris : MC-RPA, TRAH-SCF, COSX integrals
   Lee Huntington         : MR-EOM, pCC
   Robert Izsak           : Overlap fitted RIJCOSX, COSX-SCS-MP3, EOM
   Marcus Kettner         : VPT2
   Christian Kollmar      : KDIIS, OOCD, Brueckner-CCSD(T), CCSD density, CASPT2, CASPT2-K
   Simone Kossmann        : Meta GGA functionals, TD-DFT gradient, OOMP2, MP2 Hessian
   Martin Krupicka        : Initial AUTO-CI
   Lucas Lang             : DCDCAS
   Marvin Lechner         : AUTO-CI (C++ implementation), FIC-MRCC
   Dagmar Lenk            : GEPOL surface, SMD
   Dimitrios Liakos       : Extrapolation schemes; Compound Job, initial MDCI parallelization
   Dimitrios Manganas     : Further ROCIS development; embedding schemes
   Dimitrios Pantazis     : SARC Basis sets
   Anastasios Papadopoulos: AUTO-CI, single reference methods and gradients
   Taras Petrenko         : DFT Hessian,TD-DFT gradient, ASA, ECA, R-Raman, ABS, FL, XAS/XES, NRVS
   Peter Pinski           : DLPNO-MP2, DLPNO-MP2 Gradient
   Christoph Reimann      : Effective Core Potentials
   Marius Retegan         : Local ZFS, SOC
   Christoph Riplinger    : Optimizer, TS searches, QM/MM, DLPNO-CCSD(T), (RO)-DLPNO pert. Triples
   Tobias Risthaus        : Range-separated hybrids, TD-DFT gradient, RPA, STAB
   Michael Roemelt        : Original ROCIS implementation
   Masaaki Saitow         : Open-shell DLPNO-CCSD energy and density
   Barbara Sandhoefer     : DKH picture change effects
   Avijit Sen             : IP-ROCIS
   Kantharuban Sivalingam : CASSCF convergence, NEVPT2, FIC-MRCI
   Bernardo de Souza      : ESD, SOC TD-DFT
   Georgi Stoychev        : AutoAux, RI-MP2 NMR, DLPNO-MP2 response
   Willem Van den Heuvel  : Paramagnetic NMR
   Boris Wezisla          : Elementary symmetry handling
   Frank Wennmohs         : Technical directorship


 We gratefully acknowledge several colleagues who have allowed us to
 interface, adapt or use parts of their codes:
   Stefan Grimme, W. Hujo, H. Kruse, P. Pracht,  : VdW corrections, initial TS optimization,
                  C. Bannwarth, S. Ehlert          DFT functionals, gCP, sTDA/sTD-DF
   Ed Valeev, F. Pavosevic, A. Kumar             : LibInt (2-el integral package), F12 methods
   Garnet Chan, S. Sharma, J. Yang, R. Olivares  : DMRG
   Ulf Ekstrom                                   : XCFun DFT Library
   Mihaly Kallay                                 : mrcc  (arbitrary order and MRCC methods)
   Jiri Pittner, Ondrej Demel                    : Mk-CCSD
   Frank Weinhold                                : gennbo (NPA and NBO analysis)
   Christopher J. Cramer and Donald G. Truhlar   : smd solvation model
   Lars Goerigk                                  : TD-DFT with DH, B97 family of functionals
   V. Asgeirsson, H. Jonsson                     : NEB implementation
   FAccTs GmbH                                   : IRC, NEB, NEB-TS, DLPNO-Multilevel, CI-OPT
                                                   MM, QMMM, 2- and 3-layer-ONIOM, Crystal-QMMM,
                                                   LR-CPCM, SF, NACMEs, symmetry and pop. for TD-DFT,
                                                   nearIR, NL-DFT gradient (VV10), updates on ESD,
                                                   ML-optimized integration grids
   S Lehtola, MJT Oliveira, MAL Marques          : LibXC Library
   Liviu Ungur et al                             : ANISO software


 Your calculation uses the libint2 library for the computation of 2-el integrals
 For citations please refer to: http://libint.valeyev.net

 Your ORCA version has been built with support for libXC version: 5.1.0
 For citations please refer to: https://tddft.org/programs/libxc/

 This ORCA versions uses:
   CBLAS   interface :  Fast vector & matrix operations
   LAPACKE interface :  Fast linear algebra routines
   SCALAPACK package :  Parallel linear algebra routines
   Shared memory     :  Shared parallel matrices
   BLAS/LAPACK       :  OpenBLAS 0.3.15  USE64BITINT DYNAMIC_ARCH NO_AFFINITY Haswell SINGLE_THREADED
        Core in use  :  Haswell
   Copyright (c) 2011-2014, The OpenBLAS Project


Reading of a custom orbital basis requested
Basis file: ../../../../basis/aug-cc-pVQZ-CDF.bas
READING GTO-BASIS: HYDROGEN
READING GTO-BASIS: BORON
READING GTO-BASIS: CARBON
READING GTO-BASIS: NITROGEN
READING GTO-BASIS: OXYGEN
READING GTO-BASIS: FLUORINE
READING GTO-BASIS: NEON
Basis read successfully!



***************************************
The coordinates will be read from file: ../../../../../chem_database/F.xyz
***************************************


================================================================================

----- Orbital basis set information -----
Basis read from file: ../../../../basis/aug-cc-pVQZ-CDF.bas

================================================================================
                                        WARNINGS
                       Please study these warnings very carefully!
================================================================================


INFO   : the flag for use of the SHARK integral package has been found!


WARNING: TRAH-SCF with ROHF wave function is not implemented yet
  ===> : Turning TRAH off

================================================================================
                                       INPUT FILE
================================================================================
NAME = mol.inp
|  1> # ================================================================
|  2> # Orca input file
|  3> # ================================================================
|  4> ! ROHF cc-pVDZ VeryTightSCF UseSym
|  5> ! PAL4
|  6> 
|  7> %scf
|  8>   Guess = HCore
|  9>   ROHF_case SAHF    # spin averaged HF
| 10>   ROHF_NumOp   2    # 2 operators in this case: closed, open
| 11>   ROHF_NOrb[1] 3    # 3 orbitals in first open shell
| 12>   ROHF_NEl[1]  5    # 5 electrons in first open shell
| 13> end
| 14> 
| 15> %basis
| 16> GTOName = "../../../../basis/aug-cc-pVQZ-CDF.bas";
| 17> newecp F
| 18>  N_core 2
| 19>  lmax d
| 20>  d 8
| 21>   1           20.57712347           7.00000000    1
| 22>   2           15.59051942       -3314.59124744    2
| 23>   3           32.92711696        3293.90802804    2
| 24>   4           11.28976787         329.66849568    3
| 25>   5           13.52887980        -185.62863141    3
| 26>   6           22.94152689      -35766.56986040    4
| 27>   7           28.42795019       38752.49261217    4
| 28>   8           20.51482595       53796.77291253    4
| 29>  s 8
| 30>   1           13.08582993        -425.75028052    2
| 31>   2           37.03556224         445.57755351    2
| 32>   3           17.57643237       -2007.25892673    3
| 33>   4           14.85980441        -975.27815259    3
| 34>   5           16.76014321        2982.53707932    3
| 35>   6           37.24111949       -1278.25324148    4
| 36>   7           16.23198947        4687.54082644    4
| 37>   8           31.57967437        7521.63186830    4
| 38>  p 8
| 39>   1           17.95779654       21887.87219776    2
| 40>   2           34.61965053      -21902.74875377    2
| 41>   3           10.36625837      149682.13705907    3
| 42>   4           10.25704891        4863.23163027    3
| 43>   5           10.36297976     -154545.36868934    3
| 44>   6           13.41228554       -1609.48121430    4
| 45>   7           21.43441648     -174822.75948848    4
| 46>   8           30.87489189     -188775.31100974    4
| 47> end
| 48> 
| 49> end
| 50> 
| 51> * xyzfile 0 2 ../../../../../chem_database/F.xyz
| 52> 
| 53>                          ****END OF INPUT****
================================================================================

------------------------------------------------------------------------------
                            SYMMETRY HANDLING SETUP
------------------------------------------------------------------------------

------------------
SYMMETRY DETECTION
------------------
The point group will now be determined using a tolerance of 1.0000e-04.
The Z matrix contains a single non-dummy atom.
No further testing needed for point group Kh.
This point group has been found:    Kh
Largest non-degenerate subgroup:    D2h


Symmetry-perfected Cartesians (point groups Kh and D2h):

Atom          Symmetry-perfected Cartesians (x, y, z; au)
  0       0.000000000000    0.000000000000    0.000000000000


-----------------------------------------------
SYMMETRY-PERFECTED CARTESIAN COORDINATES (A.U.)
-----------------------------------------------
Warning (ORCA_SYM): Coordinates were not cleaned so far!

------------------
SYMMETRY REDUCTION
------------------
ORCA supports only abelian point groups.
It is now checked, if the determined point group is supported:
Point Group ( D2h   ) is          ... supported

(Re)building abelian point group:
Creating Character Table          ... done
Making direct product table       ... done
Constructing symmetry operations  ... done
Creating atom transfer table      ... done
Creating asymmetric unit          ... done

----------------------
ASYMMETRIC UNIT IN D2h
----------------------
  #  AT     MASS              COORDS (A.U.)             BAS
   0 F   18.9980   0.00000000   0.00000000   0.00000000   0

----------------------
SYMMETRY ADAPTED BASIS
----------------------
The coefficients for the symmetry adapted linear combinations (SALCS)
of basis functions will now be computed:
Number of basis functions         ...    79
Preparing memory                  ... done
Constructing Gamma(red)           ... done
Reducing Gamma(red)               ... done
Constructing SALCs                ... done
Checking SALC integrity           ... nothing suspicious
Normalizing SALCs                 ... done

Storing the symmetry object:
Symmetry file                     ... mol.sym.tmp
Writing symmetry information      ... done

                       ****************************
                       * Single Point Calculation *
                       ****************************

---------------------------------
CARTESIAN COORDINATES (ANGSTROEM)
---------------------------------
  F      0.000000    0.000000    0.000000

----------------------------
CARTESIAN COORDINATES (A.U.)
----------------------------
  NO LB      ZA    FRAG     MASS         X           Y           Z
   0 F     7.0000*   0    18.998    0.000000    0.000000    0.000000
* core charge reduced due to ECP

--------------------------------
INTERNAL COORDINATES (ANGSTROEM)
--------------------------------
 F      0   0   0     0.000000000000     0.00000000     0.00000000

---------------------------
INTERNAL COORDINATES (A.U.)
---------------------------
 F      0   0   0     0.000000000000     0.00000000     0.00000000

---------------------
BASIS SET INFORMATION
---------------------
There are 1 groups of distinct atoms

 Group   1 Type F   : 14s14p4d3f2g contracted to 5s5p4d3f2g pattern {101111/101111/1111/111/11}

Atom   0F    basis set group =>   1
-------------------------
ECP PARAMETER INFORMATION
-------------------------

 Group 1, Type F  ECP (replacing 2 core electrons, lmax=2)

Atom   0F    ECP group =>   1



           ************************************************************
           *        Program running with 4 parallel MPI-processes     *
           *              working on a common directory               *
           ************************************************************
------------------------------------------------------------------------------
                           ORCA GTO INTEGRAL CALCULATION
------------------------------------------------------------------------------
------------------------------------------------------------------------------
                   ___                                                        
                  /   \      - P O W E R E D   B Y -                         
                 /     \                                                     
                 |  |  |   _    _      __       _____    __    __             
                 |  |  |  | |  | |    /  \     |  _  \  |  |  /  |          
                  \  \/   | |  | |   /    \    | | | |  |  | /  /          
                 / \  \   | |__| |  /  /\  \   | |_| |  |  |/  /          
                |  |  |   |  __  | /  /__\  \  |    /   |      \           
                |  |  |   | |  | | |   __   |  |    \   |  |\   \          
                \     /   | |  | | |  |  |  |  | |\  \  |  | \   \       
                 \___/    |_|  |_| |__|  |__|  |_| \__\ |__|  \__/        
                                                                              
                      - O R C A' S   B I G   F R I E N D -                    
                                      &                                       
                       - I N T E G R A L  F E E D E R -                       
                                                                              
 v1 FN, 2020, v2 2021                                                         
------------------------------------------------------------------------------


Reading SHARK input file mol.SHARKINP.tmp ... ok
----------------------
SHARK INTEGRAL PACKAGE
----------------------

Number of atoms                             ...      1
Number of basis functions                   ...     79
Number of shells                            ...     19
Maximum angular momentum                    ...      4
Integral batch strategy                     ... SHARK/LIBINT Hybrid
RI-J (if used) integral strategy            ... SPLIT-RIJ (Revised 2003 algorithm where possible)
Printlevel                                  ...      1
Contraction scheme used                     ... SEGMENTED contraction
Coulomb Range Separation                    ... NOT USED
Exchange Range Separation                   ... NOT USED
Finite Nucleus Model                        ... NOT USED
Auxiliary Coulomb fitting basis             ... NOT available
Auxiliary J/K fitting basis                 ... NOT available
Auxiliary Correlation fitting basis         ... NOT available
Auxiliary 'external' fitting basis          ... NOT available
Integral threshold                          ...     1.000000e-12
Primitive cut-off                           ...     1.000000e-14
Primitive pair pre-selection threshold      ...     1.000000e-14

Calculating pre-screening integrals         ... done (  0.1 sec) Dimension = 19
Organizing shell pair data                  ... done (  0.0 sec)
Shell pair information
Total number of shell pairs                 ...       190
Shell pairs after pre-screening             ...       190
Total number of primitive shell pairs       ...       793
Primitive shell pairs kept                  ...       793
          la=0 lb=0:     15 shell pairs
          la=1 lb=0:     25 shell pairs
          la=1 lb=1:     15 shell pairs
          la=2 lb=0:     20 shell pairs
          la=2 lb=1:     20 shell pairs
          la=2 lb=2:     10 shell pairs
          la=3 lb=0:     15 shell pairs
          la=3 lb=1:     15 shell pairs
          la=3 lb=2:     12 shell pairs
          la=3 lb=3:      6 shell pairs
          la=4 lb=0:     10 shell pairs
          la=4 lb=1:     10 shell pairs
          la=4 lb=2:      8 shell pairs
          la=4 lb=3:      6 shell pairs
          la=4 lb=4:      3 shell pairs

Calculating one electron integrals          ... done (  0.0 sec)
Calculating ECP integrals                   ... done (  0.1 sec)
Calculating Nuclear repulsion               ... done (  0.0 sec) ENN=      0.000000000000 Eh

SHARK setup successfully completed in   0.3 seconds

Maximum memory used throughout the entire GTOINT-calculation: 33.5 MB


           ************************************************************
           *        Program running with 4 parallel MPI-processes     *
           *              working on a common directory               *
           ************************************************************
-------------------------------------------------------------------------------
                                 ORCA SCF
-------------------------------------------------------------------------------

------------
SCF SETTINGS
------------
Hamiltonian:
 Ab initio Hamiltonian  Method          .... Hartree-Fock(GTOs)


General Settings:
 Integral files         IntName         .... mol
 Hartree-Fock type      HFTyp           .... ROHF
 Total Charge           Charge          ....    0
 Multiplicity           Mult            ....    2
 Number of Electrons    NEL             ....    7
 Basis Dimension        Dim             ....   79
 Nuclear Repulsion      ENuc            ....      0.0000000000 Eh

 Symmetry handling      UseSym         .... ON
 Point group                           .... D2h
 Used point group                      .... D2h
 Number of irreps                      .... 8
   Irrep   Ag has   19 symmetry adapted basis functions (ofs=   0)
   Irrep  B1g has    8 symmetry adapted basis functions (ofs=  19)
   Irrep  B2g has    8 symmetry adapted basis functions (ofs=  27)
   Irrep  B3g has    8 symmetry adapted basis functions (ofs=  35)
   Irrep   Au has    3 symmetry adapted basis functions (ofs=  43)
   Irrep  B1u has   11 symmetry adapted basis functions (ofs=  46)
   Irrep  B2u has   11 symmetry adapted basis functions (ofs=  57)
   Irrep  B3u has   11 symmetry adapted basis functions (ofs=  68)

Convergence Acceleration:
 DIIS                   CNVDIIS         .... on
   Start iteration      DIISMaxIt       ....    12
   Startup error        DIISStart       ....  0.200000
   # of expansion vecs  DIISMaxEq       ....     5
   Bias factor          DIISBfac        ....   1.050
   Max. coefficient     DIISMaxC        ....  10.000
 Trust-Rad. Augm. Hess. CNVTRAH         .... off
 SOSCF                  CNVSOSCF        .... off
 Level Shifting         CNVShift        .... on
   Level shift para.    LevelShift      ....    0.2500
   Turn off err/grad.   ShiftErr        ....    0.0010
 Zerner damping         CNVZerner       .... off
 Static damping         CNVDamp         .... on
   Fraction old density DampFac         ....    0.7000
   Max. Damping (<1)    DampMax         ....    0.9800
   Min. Damping (>=0)   DampMin         ....    0.0000
   Turn off err/grad.   DampErr         ....    0.1000
 Fernandez-Rico         CNVRico         .... off

SCF Procedure:
 Maximum # iterations   MaxIter         ....   125
 SCF integral mode      SCFMode         .... Direct
   Integral package                     .... SHARK and LIBINT hybrid scheme
 Reset frequency        DirectResetFreq ....    20
 Integral Threshold     Thresh          ....  1.000e-12 Eh
 Primitive CutOff       TCut            ....  1.000e-14 Eh

Convergence Tolerance:
 Convergence Check Mode ConvCheckMode   .... Total+1el-Energy
 Convergence forced     ConvForced      .... 0
 Energy Change          TolE            ....  1.000e-09 Eh
 1-El. energy change                    ....  1.000e-06 Eh
 DIIS Error             TolErr          ....  1.000e-08


Diagonalization of the overlap matrix:
Smallest eigenvalue                        ... 3.014e-03
Time for diagonalization                   ...    0.001 sec
Threshold for overlap eigenvalues          ... 1.000e-08
Number of eigenvalues below threshold      ... 0
Time for construction of square roots      ...    0.001 sec
Producing symmetrization matrix            ... done (   0.000 sec)
Total time needed                          ...    0.002 sec

--------------------
INITIAL GUESS: HCORE
--------------------
Diagonalizing the Hamiltonian                      ... done
Diagonalizing the Hamiltonian                      ... done
Back transforming the eigenvectors                 ... done
AVERAGE-CONFIGURATION (SAHF) CASE FOUND

-------------------
FINAL ROHF SETTINGS
-------------------
Number of operators             ... 2
  operator   0:   1 orbitals   2 electrons n(mue)= 2.000
  operator   1:   3 orbitals   5 electrons n(mue)= 1.667
Vector coupling coefficients a and b (Zerner convention):
   1.000    1.000           1.000    1.000 
   1.000    0.960           1.000    0.960 

Occupation of irreps:
Operator 0
    Ag occ= 1
   B1g occ= 0
   B2g occ= 0
   B3g occ= 0
    Au occ= 0
   B1u occ= 0
   B2u occ= 0
   B3u occ= 0
Operator 1
    Ag occ= 0
   B1g occ= 0
   B2g occ= 0
   B3g occ= 0
    Au occ= 0
   B1u occ= 1
   B2u occ= 1
   B3u occ= 1

                      -----------------
                      INTIAL GUESS DONE 
                      -----------------
--------------
SCF ITERATIONS
--------------
ITER       Energy         Delta-E        Max-DP      RMS-DP      [F,P]     Damp
               ***  Starting incremental Fock matrix formation  ***
  0    -20.2795494802   0.000000000000 0.86282971  0.01612345  1.1689303 0.7000
  1    -21.1212977234  -0.841748243199 0.41924241  0.00834210  0.2525408 0.7000
                            ****Activating DIIS****
  2    -22.6715077038  -1.550209980409 0.21766646  0.00490043  0.1676654 0.7000
  3    -23.1211018488  -0.449594144976 0.47227435  0.01119342  0.0295127 0.0000
  4    -23.8675954467  -0.746493597927 0.02088470  0.00030922  0.0585861 0.0000
  5    -23.8712402289  -0.003644782215 0.02648980  0.00044660  0.0371875 0.0000
  6    -23.8738564270  -0.002616198090 0.01000646  0.00025246  0.0068450 0.0000
  7    -23.8740718035  -0.000215376512 0.00139482  0.00002717  0.0013750 0.0000
  8    -23.8740740738  -0.000002270323 0.00048940  0.00000874  0.0004068 0.0000
  9    -23.8740743097  -0.000000235829 0.00004449  0.00000085  0.0000311 0.0000
 10    -23.8740743125  -0.000000002818 0.00001671  0.00000031  0.0000088 0.0000
                 **** Energy Check signals convergence ****

               *****************************************************
               *                     SUCCESS                       *
               *           SCF CONVERGED AFTER  11 CYCLES          *
               *****************************************************


----------------
TOTAL SCF ENERGY
----------------

Total Energy       :          -23.87407431 Eh            -649.64659 eV

Components:
Nuclear Repulsion  :            0.00000000 Eh               0.00000 eV
Electronic Energy  :          -23.87407431 Eh            -649.64659 eV
One Electron Energy:          -40.94817406 Eh           -1114.25646 eV
Two Electron Energy:           17.07409975 Eh             464.60987 eV

Virial components:
Potential Energy   :          -42.41635666 Eh           -1154.20774 eV
Kinetic Energy     :           18.54228235 Eh             504.56115 eV
Virial Ratio       :            2.28754777


---------------
SCF CONVERGENCE
---------------

  Last Energy change         ...   -2.6671e-10  Tolerance :   1.0000e-09
  Last MAX-Density change    ...    6.7296e-07  Tolerance :   1.0000e-08
  Last RMS-Density change    ...    1.5675e-08  Tolerance :   1.0000e-09
  Last DIIS Error            ...    3.9228e-07  Tolerance :   1.0000e-08

             **** THE GBW FILE WAS UPDATED (mol.gbw) ****
             **** DENSITY mol.scfp WAS UPDATED ****
             **** ENERGY FILE WAS UPDATED (mol.en.tmp) ****
             **** THE GBW FILE WAS UPDATED (mol.gbw) ****
             **** DENSITY mol.scfp WAS UPDATED ****
----------------
ORBITAL ENERGIES
----------------

  NO   OCC          E(Eh)            E(eV)    Irrep 
   0   2.0000      -1.576069       -42.8870    1-Ag
   1   1.6667      -0.729567       -19.8525    1-B1u
   2   1.6667      -0.729567       -19.8525    1-B3u
   3   1.6667      -0.729567       -19.8525    1-B2u
   4   0.0000       0.127034         3.4568    2-B3u
   5   0.0000       0.127034         3.4568    2-B1u
   6   0.0000       0.127034         3.4568    2-B2u
   7   0.0000       0.181673         4.9436    2-Ag
   8   0.0000       0.536859        14.6087    3-Ag
   9   0.0000       0.536859        14.6087    4-Ag
  10   0.0000       0.536859        14.6087    1-B1g
  11   0.0000       0.536859        14.6087    1-B3g
  12   0.0000       0.536859        14.6087    1-B2g
  13   0.0000       0.752835        20.4857    3-B2u
  14   0.0000       0.752835        20.4857    3-B3u
  15   0.0000       0.752835        20.4857    3-B1u
  16   0.0000       1.345154        36.6035    5-Ag
  17   0.0000       1.707769        46.4708    4-B1u
  18   0.0000       1.707769        46.4708    4-B3u
  19   0.0000       1.707769        46.4708    4-B2u
  20   0.0000       1.707769        46.4708    5-B1u
  21   0.0000       1.707769        46.4708    1-Au
  22   0.0000       1.707769        46.4708    5-B2u
  23   0.0000       1.707769        46.4708    5-B3u
  24   0.0000       1.850644        50.3586    2-B1g
  25   0.0000       1.850644        50.3586    6-Ag
  26   0.0000       1.850644        50.3586    2-B2g
  27   0.0000       1.850644        50.3586    7-Ag
  28   0.0000       1.850644        50.3586    2-B3g
  29   0.0000       2.966973        80.7354    6-B1u
  30   0.0000       2.966973        80.7354    6-B2u
  31   0.0000       2.966973        80.7354    6-B3u
  32   0.0000       4.503188       122.5380    3-B1g
  33   0.0000       4.503188       122.5380    8-Ag
  34   0.0000       4.503188       122.5380    9-Ag
  35   0.0000       4.503188       122.5380    3-B2g
  36   0.0000       4.503188       122.5380    3-B3g
  37   0.0000       4.503188       122.5380    4-B2g
  38   0.0000       4.503188       122.5380    4-B3g
  39   0.0000       4.503188       122.5380    4-B1g
  40   0.0000       4.503188       122.5380   10-Ag
  41   0.0000       5.215210       141.9131    7-B1u
  42   0.0000       5.215210       141.9131    7-B3u
  43   0.0000       5.215210       141.9131    7-B2u
  44   0.0000       5.215210       141.9131    8-B2u
  45   0.0000       5.215210       141.9131    8-B3u
  46   0.0000       5.215210       141.9131    2-Au
  47   0.0000       5.215210       141.9131    8-B1u
  48   0.0000       5.375644       146.2787    5-B3g
  49   0.0000       5.375644       146.2787    5-B2g
  50   0.0000       5.375644       146.2787    5-B1g
  51   0.0000       5.375644       146.2787   11-Ag
  52   0.0000       5.375644       146.2787   12-Ag
  53   0.0000       5.906145       160.7144   13-Ag
  54   0.0000      11.625006       316.3325    9-B3u
  55   0.0000      11.625006       316.3325    9-B1u
  56   0.0000      11.625006       316.3325    9-B2u
  57   0.0000      13.327483       362.6592   14-Ag
  58   0.0000      13.327483       362.6592    6-B3g
  59   0.0000      13.327483       362.6592    6-B1g
  60   0.0000      13.327483       362.6592    7-B3g
  61   0.0000      13.327483       362.6592   15-Ag
  62   0.0000      13.327483       362.6592    6-B2g
  63   0.0000      13.327483       362.6592   16-Ag
  64   0.0000      13.327483       362.6592    7-B2g
  65   0.0000      13.327483       362.6592    7-B1g
  66   0.0000      15.228843       414.3979   10-B2u
  67   0.0000      15.228843       414.3979   11-B2u
  68   0.0000      15.228843       414.3979   10-B3u
  69   0.0000      15.228843       414.3979   10-B1u
  70   0.0000      15.228843       414.3979   11-B3u
  71   0.0000      15.228843       414.3979    3-Au
  72   0.0000      15.228843       414.3979   11-B1u
  73   0.0000      16.126668       438.8289    8-B1g
  74   0.0000      16.126668       438.8289   17-Ag
  75   0.0000      16.126668       438.8289    8-B2g
  76   0.0000      16.126668       438.8289    8-B3g
  77   0.0000      16.126668       438.8289   18-Ag
  78   0.0000      23.085229       628.1810   19-Ag

                    ********************************
                    * MULLIKEN POPULATION ANALYSIS *
                    ********************************

--------------------------------------------
MULLIKEN ATOMIC CHARGES AND SPIN POPULATIONS
--------------------------------------------
   0 F :    0.000000    1.000000
Sum of atomic charges         :    0.0000000
Sum of atomic spin populations:    1.0000000

-----------------------------------------------------
MULLIKEN REDUCED ORBITAL CHARGES AND SPIN POPULATIONS
-----------------------------------------------------
CHARGE
  0 F s       :     2.000000  s :     2.000000
      pz      :     1.666667  p :     5.000000
      px      :     1.666667
      py      :     1.666667
      dz2     :     0.000000  d :     0.000000
      dxz     :     0.000000
      dyz     :     0.000000
      dx2y2   :     0.000000
      dxy     :     0.000000
      f0      :     0.000000  f :     0.000000
      f+1     :     0.000000
      f-1     :     0.000000
      f+2     :     0.000000
      f-2     :     0.000000
      f+3     :     0.000000
      f-3     :     0.000000
      g0      :     0.000000  g :     0.000000
      g+1     :     0.000000
      g-1     :     0.000000
      g+2     :     0.000000
      g-2     :     0.000000
      g+3     :     0.000000
      g-3     :     0.000000
      g+4     :     0.000000
      g-4     :     0.000000

SPIN
  0 F s       :     0.000000  s :     0.000000
      pz      :     0.333333  p :     1.000000
      px      :     0.333333
      py      :     0.333333
      dz2     :     0.000000  d :     0.000000
      dxz     :     0.000000
      dyz     :     0.000000
      dx2y2   :     0.000000
      dxy     :     0.000000
      f0      :     0.000000  f :     0.000000
      f+1     :     0.000000
      f-1     :     0.000000
      f+2     :     0.000000
      f-2     :     0.000000
      f+3     :     0.000000
      f-3     :     0.000000
      g0      :     0.000000  g :     0.000000
      g+1     :     0.000000
      g-1     :     0.000000
      g+2     :     0.000000
      g-2     :     0.000000
      g+3     :     0.000000
      g-3     :     0.000000
      g+4     :     0.000000
      g-4     :     0.000000


                     *******************************
                     * LOEWDIN POPULATION ANALYSIS *
                     *******************************

-------------------------------------------
LOEWDIN ATOMIC CHARGES AND SPIN POPULATIONS
-------------------------------------------
   0 F :    0.000000    1.000000

----------------------------------------------------
LOEWDIN REDUCED ORBITAL CHARGES AND SPIN POPULATIONS
----------------------------------------------------
CHARGE
  0 F s       :     2.000000  s :     2.000000
      pz      :     1.666667  p :     5.000000
      px      :     1.666667
      py      :     1.666667
      dz2     :     0.000000  d :     0.000000
      dxz     :     0.000000
      dyz     :     0.000000
      dx2y2   :     0.000000
      dxy     :     0.000000
      f0      :     0.000000  f :     0.000000
      f+1     :     0.000000
      f-1     :     0.000000
      f+2     :     0.000000
      f-2     :     0.000000
      f+3     :     0.000000
      f-3     :     0.000000
      g0      :     0.000000  g :     0.000000
      g+1     :     0.000000
      g-1     :     0.000000
      g+2     :     0.000000
      g-2     :     0.000000
      g+3     :     0.000000
      g-3     :     0.000000
      g+4     :     0.000000
      g-4     :     0.000000

SPIN
  0 F s       :     0.000000  s :     0.000000
      pz      :     0.333333  p :     1.000000
      px      :     0.333333
      py      :     0.333333
      dz2     :     0.000000  d :     0.000000
      dxz     :     0.000000
      dyz     :     0.000000
      dx2y2   :     0.000000
      dxy     :     0.000000
      f0      :     0.000000  f :     0.000000
      f+1     :     0.000000
      f-1     :     0.000000
      f+2     :     0.000000
      f-2     :     0.000000
      f+3     :     0.000000
      f-3     :     0.000000
      g0      :     0.000000  g :     0.000000
      g+1     :     0.000000
      g-1     :     0.000000
      g+2     :     0.000000
      g-2     :     0.000000
      g+3     :     0.000000
      g-3     :     0.000000
      g+4     :     0.000000
      g-4     :     0.000000


                      *****************************
                      * MAYER POPULATION ANALYSIS *
                      *****************************

  NA   - Mulliken gross atomic population
  ZA   - Total nuclear charge
  QA   - Mulliken gross atomic charge
  VA   - Mayer's total valence
  BVA  - Mayer's bonded valence
  FA   - Mayer's free valence

  ATOM       NA         ZA         QA         VA         BVA        FA
  0 F      7.0000     7.0000     0.0000     1.6667     0.0000     1.6667

  Mayer bond orders larger than 0.100000



Warning: MO coefficients are modified such that the real solid harmonic m components
have the correct order within each shell (0, +1, -1, +2, -2, ...) and all s orbitals
come before all p orbitals etc. (with increasing orbital energy within each block of given angular momentum).

--------------------------
ATOM BASIS FOR ELEMENT F 
--------------------------
 NewGTO F 
 S 14
    1         74.899510000000        -0.002467896049
    2         46.741990000000         0.019168192609
    3         29.164360000000        -0.081148581908
    4         18.197000000000         0.213919989389
    5         11.373050000000        -0.254977259999
    6          3.968850000000        -0.064447285390
    7          2.041550000000         0.236176051933
    8          0.910370000000         0.462374524135
    9          0.410300000000         0.379243025751
   10          0.181530000000         0.090347194449
   11          2.330400000000        -0.000013934684
   12          0.835700000000        -0.000094777968
   13          0.299700000000         0.000180942844
   14          0.124400000000        -0.000026940722
 S 14
    1         74.899510000000        -0.001018983993
    2         46.741990000000         0.007914466843
    3         29.164360000000        -0.033505911277
    4         18.197000000000         0.088326672092
    5         11.373050000000        -0.105279048017
    6          3.968850000000        -0.026610015549
    7          2.041550000000         0.097516107562
    8          0.910370000000         0.190912514036
    9          0.410300000000         0.156587864809
   10          0.181530000000         0.037303980060
   11          2.330400000000         0.088483912179
   12          0.835700000000        -0.428899732088
   13          0.299700000000         1.414342647488
   14          0.124400000000        -1.996268221430
 S 14
    1         74.899510000000        -0.000581828207
    2         46.741990000000         0.004519070054
    3         29.164360000000        -0.019131492149
    4         18.197000000000         0.050433519616
    5         11.373050000000        -0.060113132394
    6          3.968850000000        -0.015194014553
    7          2.041550000000         0.055680582175
    8          0.910370000000         0.109008862144
    9          0.410300000000         0.089409879989
   10          0.181530000000         0.021300145987
   11          2.330400000000        -0.362640923614
   12          0.835700000000         2.467139509937
   13          0.299700000000        -3.926535593244
   14          0.124400000000         1.764105344089
 S 14
    1         74.899510000000        -0.011201058447
    2         46.741990000000         0.086998820652
    3         29.164360000000        -0.368309681963
    4         18.197000000000         0.970920272485
    5         11.373050000000        -1.157267216882
    6          3.968850000000        -0.292507381242
    7          2.041550000000         1.071934031744
    8          0.910370000000         2.098582746964
    9          0.410300000000         1.721273187003
   10          0.181530000000         0.410059494221
   11          2.330400000000         2.475377263258
   12          0.835700000000        -6.851556109011
   13          0.299700000000         1.070407148648
   14          0.124400000000        -0.946382084329
 S 14
    1         74.899510000000        -0.031609921278
    2         46.741990000000         0.245514822111
    3         29.164360000000        -1.039387492510
    4         18.197000000000         2.739983326167
    5         11.373050000000        -3.265863292834
    6          3.968850000000        -0.825469783767
    7          2.041550000000         3.025048973604
    8          0.910370000000         5.922300623663
    9          0.410300000000         4.857515046108
   10          0.181530000000         1.157207454354
   11          2.330400000000         0.081072004384
   12          0.835700000000        -9.813002678804
   13          0.299700000000        -3.165448021026
   14          0.124400000000        -0.528806576315
 P 14
    1         67.315050000000        -0.001109958431
    2         42.089490000000         0.007862705535
    3         26.316540000000        -0.034261716870
    4         16.189310000000         0.078924044229
    5          5.977230000000         0.112354792219
    6          2.908510000000         0.189772892846
    7          1.438460000000         0.276074660773
    8          0.680460000000         0.314713213727
    9          0.304980000000         0.240761983262
   10          0.128040000000         0.074775199606
   11          1.785000000000        -0.000021429140
   12          0.609100000000         0.000093852508
   13          0.207800000000        -0.000189470074
   14          0.069500000000         0.000291612670
 P 14
    1         67.315050000000        -0.000188900197
    2         42.089490000000         0.001338128152
    3         26.316540000000        -0.005830889592
    4         16.189310000000         0.013431825082
    5          5.977230000000         0.019121294797
    6          2.908510000000         0.032296828260
    7          1.438460000000         0.046984244021
    8          0.680460000000         0.053560013037
    9          0.304980000000         0.040974494873
   10          0.128040000000         0.012725746779
   11          1.785000000000         0.034020748792
   12          0.609100000000        -0.094450778292
   13          0.207800000000         0.446195015786
   14          0.069500000000        -1.266867356074
 P 14
    1         67.315050000000        -0.000730327131
    2         42.089490000000         0.005173479489
    3         26.316540000000        -0.022543422067
    4         16.189310000000         0.051930206740
    5          5.977230000000         0.073926870387
    6          2.908510000000         0.124866200857
    7          1.438460000000         0.181650780185
    8          0.680460000000         0.207074059778
    9          0.304980000000         0.158415850177
   10          0.128040000000         0.049200362355
   11          1.785000000000        -0.145769159345
   12          0.609100000000         0.565983365626
   13          0.207800000000        -2.018227449505
   14          0.069500000000         0.844632466261
 P 14
    1         67.315050000000        -0.001082458373
    2         42.089490000000         0.007667901072
    3         26.316540000000        -0.033412856981
    4         16.189310000000         0.076968641477
    5          5.977230000000         0.109571117459
    6          2.908510000000         0.185071126223
    7          1.438460000000         0.269234702726
    8          0.680460000000         0.306915956374
    9          0.304980000000         0.234796923448
   10          0.128040000000         0.072922587611
   11          1.785000000000         0.814497344743
   12          0.609100000000        -2.469204367201
   13          0.207800000000         1.036336786600
   14          0.069500000000        -0.412406123313
 P 14
    1         67.315050000000        -0.007120415882
    2         42.089490000000         0.050439486558
    3         26.316540000000        -0.219789918344
    4         16.189310000000         0.506300057937
    5          5.977230000000         0.720759286553
    6          2.908510000000         1.217398672131
    7          1.438460000000         1.771027043921
    8          0.680460000000         2.018894494080
    9          0.304980000000         1.544495182252
   10          0.128040000000         0.479685098033
   11          1.785000000000        -4.266608320149
   12          0.609100000000        -1.561288103439
   13          0.207800000000        -1.893997364224
   14          0.069500000000         0.100462929526
 D 4
    1          4.825000000000        -0.007758518276
    2          1.673200000000         0.070861783490
    3          0.580300000000        -0.187415886147
    4          0.197400000000         1.096221927973
 D 4
    1          4.825000000000         0.058682257951
    2          1.673200000000        -0.108137254158
    3          0.580300000000         1.332990935268
    4          0.197400000000        -0.697218000060
 D 4
    1          4.825000000000        -0.046264668357
    2          1.673200000000         1.395312182219
    3          0.580300000000        -1.080731281825
    4          0.197400000000         0.370234986994
 D 4
    1          4.825000000000         1.377815848699
    2          1.673200000000        -1.178495097103
    3          0.580300000000         0.557393305665
    4          0.197400000000        -0.179321407385
 F 3
    1          3.501200000000         0.038134845378
    2          1.137600000000        -0.215357396924
    3          0.441900000000         1.116113819961
 F 3
    1          3.501200000000        -0.092453884660
    2          1.137600000000         1.314723155774
    3          0.441900000000        -0.646726405529
 F 3
    1          3.501200000000         1.204043762564
    2          1.137600000000        -0.733526896416
    3          0.441900000000         0.280272711149
 G 2
    1          2.367000000000         0.157298010845
    2          0.908900000000        -1.076974188154
 G 2
    1          2.367000000000         1.182178654593
    2          0.908900000000        -0.512265198545
 end
-------------------------------------------
RADIAL EXPECTATION VALUES <R**-3> TO <R**3>
-------------------------------------------
   0 :     0.000000     2.087173     1.236147     1.003894     1.215359     1.745099
   1 :     0.000000     0.239374     0.371812     3.188486    10.980989    40.021030
   2 :     0.000000     0.941753     0.693818     2.160508     6.060344    20.480639
   3 :     0.000000     3.652129     1.440643     1.137566     2.036286     5.294172
   4 :     0.000000    26.283398     3.889111     0.449383     0.407764     0.719250
   5 :     6.308071     2.282621     1.261206     1.085853     1.545486     2.772107
   6 :     6.308071     2.282621     1.261206     1.085853     1.545486     2.772107
   7 :     6.308071     2.282621     1.261206     1.085853     1.545486     2.772107
   8 :     0.217239     0.122676     0.255660     4.580525    22.509423   116.946891
   9 :     0.217239     0.122676     0.255660     4.580525    22.509423   116.946891
  10 :     0.217239     0.122676     0.255660     4.580525    22.509423   116.946891
  11 :     1.895660     0.689437     0.556043     2.818642    10.262958    45.561773
  12 :     1.895660     0.689437     0.556043     2.818642    10.262958    45.561773
  13 :     1.895660     0.689437     0.556043     2.818642    10.262958    45.561773
  14 :     6.916385     2.198272     1.122000     1.524330     3.599049    12.265035
  15 :     6.916385     2.198272     1.122000     1.524330     3.599049    12.265035
  16 :     6.916385     2.198272     1.122000     1.524330     3.599049    12.265035
  17 :    40.102708     8.230764     2.343709     0.748208     1.077050     2.855717
  18 :    40.102708     8.230764     2.343709     0.748208     1.077050     2.855717
  19 :    40.102708     8.230764     2.343709     0.748208     1.077050     2.855717
  20 :     0.061898     0.138699     0.355771     3.015992     9.653564   162.873628
  21 :     0.061898     0.138699     0.355771     3.015992     9.653564   162.873628
  22 :     0.061898     0.138699     0.355771     3.015992     9.653564   162.873628
  23 :     0.061898     0.138699     0.355771     3.015992     9.653564   162.873628
  24 :     0.061898     0.138699     0.355771     3.015992     9.653564   162.873628
  25 :     0.419741     0.469384     0.632578     1.881018     4.318972    60.460717
  26 :     0.419741     0.469384     0.632578     1.881018     4.318972    60.460717
  27 :     0.419741     0.469384     0.632578     1.881018     4.318972    60.460717
  28 :     0.419741     0.469384     0.632578     1.881018     4.318972    60.460717
  29 :     0.419741     0.469384     0.632578     1.881018     4.318972    60.460717
  30 :     1.841971     1.293235     1.046187     1.201705     1.948396    21.640215
  31 :     1.841971     1.293235     1.046187     1.201705     1.948396    21.640215
  32 :     1.841971     1.293235     1.046187     1.201705     1.948396    21.640215
  33 :     1.841971     1.293235     1.046187     1.201705     1.948396    21.640215
  34 :     1.841971     1.293235     1.046187     1.201705     1.948396    21.640215
  35 :     9.898724     3.919402     1.808379     0.718245     0.756458     6.309870
  36 :     9.898724     3.919402     1.808379     0.718245     0.756458     6.309870
  37 :     9.898724     3.919402     1.808379     0.718245     0.756458     6.309870
  38 :     9.898724     3.919402     1.808379     0.718245     0.756458     6.309870
  39 :     9.898724     3.919402     1.808379     0.718245     0.756458     6.309870
  40 :     0.109042     0.215080     0.452024     2.315959     5.596477    98.528453
  41 :     0.109042     0.215080     0.452024     2.315959     5.596477    98.528453
  42 :     0.109042     0.215080     0.452024     2.315959     5.596477    98.528453
  43 :     0.109042     0.215080     0.452024     2.315959     5.596477    98.528453
  44 :     0.109042     0.215080     0.452024     2.315959     5.596477    98.528453
  45 :     0.109042     0.215080     0.452024     2.315959     5.596477    98.528453
  46 :     0.109042     0.215080     0.452024     2.315959     5.596477    98.528453
  47 :     0.557581     0.627083     0.758878     1.467804     2.468912    33.925004
  48 :     0.557581     0.627083     0.758878     1.467804     2.468912    33.925004
  49 :     0.557581     0.627083     0.758878     1.467804     2.468912    33.925004
  50 :     0.557581     0.627083     0.758878     1.467804     2.468912    33.925004
  51 :     0.557581     0.627083     0.758878     1.467804     2.468912    33.925004
  52 :     0.557581     0.627083     0.758878     1.467804     2.468912    33.925004
  53 :     0.557581     0.627083     0.758878     1.467804     2.468912    33.925004
  54 :     3.432641     2.061094     1.360656     0.851102     0.900378     8.883809
  55 :     3.432641     2.061094     1.360656     0.851102     0.900378     8.883809
  56 :     3.432641     2.061094     1.360656     0.851102     0.900378     8.883809
  57 :     3.432641     2.061094     1.360656     0.851102     0.900378     8.883809
  58 :     3.432641     2.061094     1.360656     0.851102     0.900378     8.883809
  59 :     3.432641     2.061094     1.360656     0.851102     0.900378     8.883809
  60 :     3.432641     2.061094     1.360656     0.851102     0.900378     8.883809
  61 :     0.229593     0.360170     0.588505     1.764476     3.228143    42.801743
  62 :     0.229593     0.360170     0.588505     1.764476     3.228143    42.801743
  63 :     0.229593     0.360170     0.588505     1.764476     3.228143    42.801743
  64 :     0.229593     0.360170     0.588505     1.764476     3.228143    42.801743
  65 :     0.229593     0.360170     0.588505     1.764476     3.228143    42.801743
  66 :     0.229593     0.360170     0.588505     1.764476     3.228143    42.801743
  67 :     0.229593     0.360170     0.588505     1.764476     3.228143    42.801743
  68 :     0.229593     0.360170     0.588505     1.764476     3.228143    42.801743
  69 :     0.229593     0.360170     0.588505     1.764476     3.228143    42.801743
  70 :     1.275247     1.095785     1.008761     1.082838     1.309626    12.656724
  71 :     1.275247     1.095785     1.008761     1.082838     1.309626    12.656724
  72 :     1.275247     1.095785     1.008761     1.082838     1.309626    12.656724
  73 :     1.275247     1.095785     1.008761     1.082838     1.309626    12.656724
  74 :     1.275247     1.095785     1.008761     1.082838     1.309626    12.656724
  75 :     1.275247     1.095785     1.008761     1.082838     1.309626    12.656724
  76 :     1.275247     1.095785     1.008761     1.082838     1.309626    12.656724
  77 :     1.275247     1.095785     1.008761     1.082838     1.309626    12.656724
  78 :     1.275247     1.095785     1.008761     1.082838     1.309626    12.656724
-------
TIMINGS
-------

Total SCF time: 0 days 0 hours 0 min 1 sec 

Total time                  ....       1.222 sec
Sum of individual times     ....       0.980 sec  ( 80.1%)

Fock matrix formation       ....       0.920 sec  ( 75.2%)
Diagonalization             ....       0.023 sec  (  1.9%)
Density matrix formation    ....       0.009 sec  (  0.7%)
Population analysis         ....       0.011 sec  (  0.9%)
Initial guess               ....       0.002 sec  (  0.2%)
Orbital Transformation      ....       0.000 sec  (  0.0%)
Orbital Orthonormalization  ....       0.000 sec  (  0.0%)
DIIS solution               ....       0.016 sec  (  1.3%)

Maximum memory used throughout the entire SCF-calculation: 228.3 MB

-------------------------   --------------------
FINAL SINGLE POINT ENERGY       -23.874074312740
-------------------------   --------------------


                            ***************************************
                            *     ORCA property calculations      *
                            ***************************************

                                    ---------------------
                                    Active property flags
                                    ---------------------
   (+) Dipole Moment


------------------------------------------------------------------------------
                       ORCA ELECTRIC PROPERTIES CALCULATION
------------------------------------------------------------------------------

Dipole Moment Calculation                       ... on
Quadrupole Moment Calculation                   ... off
Polarizability Calculation                      ... off
GBWName                                         ... mol.gbw
Electron density                                ... mol.scfp
The origin for moment calculation is the CENTER OF MASS  = ( 0.000000,  0.000000  0.000000)

-------------
DIPOLE MOMENT
-------------
                                X             Y             Z
Electronic contribution:     -0.00000      -0.00000      -0.00000
Nuclear contribution   :      0.00000       0.00000       0.00000
                        -----------------------------------------
Total Dipole Moment    :     -0.00000      -0.00000      -0.00000
                        -----------------------------------------
Magnitude (a.u.)       :      0.00000
Magnitude (Debye)      :      0.00000



--------------------
Rotational spectrum 
--------------------
 
Rotational constants in cm-1:     0.000000     0.000000     0.000000 
Rotational constants in MHz :     0.000000     0.000000     0.000000 

 Dipole components along the rotational axes: 
x,y,z [a.u.] :    -0.000000    -0.000000    -0.000000 
x,y,z [Debye]:    -0.000000    -0.000000    -0.000000 

 

Timings for individual modules:

Sum of individual times         ...        2.300 sec (=   0.038 min)
GTO integral calculation        ...        0.685 sec (=   0.011 min)  29.8 %
SCF iterations                  ...        1.616 sec (=   0.027 min)  70.2 %
                             ****ORCA TERMINATED NORMALLY****
TOTAL RUN TIME: 0 days 0 hours 0 minutes 2 seconds 815 msec
