
                                 *****************
                                 * O   R   C   A *
                                 *****************

                                            #,                                       
                                            ###                                      
                                            ####                                     
                                            #####                                    
                                            ######                                   
                                           ########,                                 
                                     ,,################,,,,,                         
                               ,,#################################,,                 
                          ,,##########################################,,             
                       ,#########################################, ''#####,          
                    ,#############################################,,   '####,        
                  ,##################################################,,,,####,       
                ,###########''''           ''''###############################       
              ,#####''   ,,,,##########,,,,          '''####'''          '####       
            ,##' ,,,,###########################,,,                        '##       
           ' ,,###''''                  '''############,,,                           
         ,,##''                                '''############,,,,        ,,,,,,###''
      ,#''                                            '''#######################'''  
     '                                                          ''''####''''         
             ,#######,   #######,   ,#######,      ##                                
            ,#'     '#,  ##    ##  ,#'     '#,    #''#        ######   ,####,        
            ##       ##  ##   ,#'  ##            #'  '#       #        #'  '#        
            ##       ##  #######   ##           ,######,      #####,   #    #        
            '#,     ,#'  ##    ##  '#,     ,#' ,#      #,         ##   #,  ,#        
             '#######'   ##     ##  '#######'  #'      '#     #####' # '####'        



                  #######################################################
                  #                        -***-                        #
                  #          Department of theory and spectroscopy      #
                  #    Directorship and core code : Frank Neese         #
                  #        Max Planck Institute fuer Kohlenforschung    #
                  #                Kaiser Wilhelm Platz 1               #
                  #                 D-45470 Muelheim/Ruhr               #
                  #                      Germany                        #
                  #                                                     #
                  #                  All rights reserved                #
                  #                        -***-                        #
                  #######################################################


                         Program Version 5.0.3 -  RELEASE  -


 With contributions from (in alphabetic order):
   Daniel Aravena         : Magnetic Suceptibility
   Michael Atanasov       : Ab Initio Ligand Field Theory (pilot matlab implementation)
   Alexander A. Auer      : GIAO ZORA, VPT2 properties, NMR spectrum
   Ute Becker             : Parallelization
   Giovanni Bistoni       : ED, misc. LED, open-shell LED, HFLD
   Martin Brehm           : Molecular dynamics
   Dmytro Bykov           : SCF Hessian
   Vijay G. Chilkuri      : MRCI spin determinant printing, contributions to CSF-ICE
   Dipayan Datta          : RHF DLPNO-CCSD density
   Achintya Kumar Dutta   : EOM-CC, STEOM-CC
   Dmitry Ganyushin       : Spin-Orbit,Spin-Spin,Magnetic field MRCI
   Miquel Garcia          : C-PCM and meta-GGA Hessian, CC/C-PCM, Gaussian charge scheme
   Yang Guo               : DLPNO-NEVPT2, F12-NEVPT2, CIM, IAO-localization
   Andreas Hansen         : Spin unrestricted coupled pair/coupled cluster methods
   Benjamin Helmich-Paris : MC-RPA, TRAH-SCF, COSX integrals
   Lee Huntington         : MR-EOM, pCC
   Robert Izsak           : Overlap fitted RIJCOSX, COSX-SCS-MP3, EOM
   Marcus Kettner         : VPT2
   Christian Kollmar      : KDIIS, OOCD, Brueckner-CCSD(T), CCSD density, CASPT2, CASPT2-K
   Simone Kossmann        : Meta GGA functionals, TD-DFT gradient, OOMP2, MP2 Hessian
   Martin Krupicka        : Initial AUTO-CI
   Lucas Lang             : DCDCAS
   Marvin Lechner         : AUTO-CI (C++ implementation), FIC-MRCC
   Dagmar Lenk            : GEPOL surface, SMD
   Dimitrios Liakos       : Extrapolation schemes; Compound Job, initial MDCI parallelization
   Dimitrios Manganas     : Further ROCIS development; embedding schemes
   Dimitrios Pantazis     : SARC Basis sets
   Anastasios Papadopoulos: AUTO-CI, single reference methods and gradients
   Taras Petrenko         : DFT Hessian,TD-DFT gradient, ASA, ECA, R-Raman, ABS, FL, XAS/XES, NRVS
   Peter Pinski           : DLPNO-MP2, DLPNO-MP2 Gradient
   Christoph Reimann      : Effective Core Potentials
   Marius Retegan         : Local ZFS, SOC
   Christoph Riplinger    : Optimizer, TS searches, QM/MM, DLPNO-CCSD(T), (RO)-DLPNO pert. Triples
   Tobias Risthaus        : Range-separated hybrids, TD-DFT gradient, RPA, STAB
   Michael Roemelt        : Original ROCIS implementation
   Masaaki Saitow         : Open-shell DLPNO-CCSD energy and density
   Barbara Sandhoefer     : DKH picture change effects
   Avijit Sen             : IP-ROCIS
   Kantharuban Sivalingam : CASSCF convergence, NEVPT2, FIC-MRCI
   Bernardo de Souza      : ESD, SOC TD-DFT
   Georgi Stoychev        : AutoAux, RI-MP2 NMR, DLPNO-MP2 response
   Willem Van den Heuvel  : Paramagnetic NMR
   Boris Wezisla          : Elementary symmetry handling
   Frank Wennmohs         : Technical directorship


 We gratefully acknowledge several colleagues who have allowed us to
 interface, adapt or use parts of their codes:
   Stefan Grimme, W. Hujo, H. Kruse, P. Pracht,  : VdW corrections, initial TS optimization,
                  C. Bannwarth, S. Ehlert          DFT functionals, gCP, sTDA/sTD-DF
   Ed Valeev, F. Pavosevic, A. Kumar             : LibInt (2-el integral package), F12 methods
   Garnet Chan, S. Sharma, J. Yang, R. Olivares  : DMRG
   Ulf Ekstrom                                   : XCFun DFT Library
   Mihaly Kallay                                 : mrcc  (arbitrary order and MRCC methods)
   Jiri Pittner, Ondrej Demel                    : Mk-CCSD
   Frank Weinhold                                : gennbo (NPA and NBO analysis)
   Christopher J. Cramer and Donald G. Truhlar   : smd solvation model
   Lars Goerigk                                  : TD-DFT with DH, B97 family of functionals
   V. Asgeirsson, H. Jonsson                     : NEB implementation
   FAccTs GmbH                                   : IRC, NEB, NEB-TS, DLPNO-Multilevel, CI-OPT
                                                   MM, QMMM, 2- and 3-layer-ONIOM, Crystal-QMMM,
                                                   LR-CPCM, SF, NACMEs, symmetry and pop. for TD-DFT,
                                                   nearIR, NL-DFT gradient (VV10), updates on ESD,
                                                   ML-optimized integration grids
   S Lehtola, MJT Oliveira, MAL Marques          : LibXC Library
   Liviu Ungur et al                             : ANISO software


 Your calculation uses the libint2 library for the computation of 2-el integrals
 For citations please refer to: http://libint.valeyev.net

 Your ORCA version has been built with support for libXC version: 5.1.0
 For citations please refer to: https://tddft.org/programs/libxc/

 This ORCA versions uses:
   CBLAS   interface :  Fast vector & matrix operations
   LAPACKE interface :  Fast linear algebra routines
   SCALAPACK package :  Parallel linear algebra routines
   Shared memory     :  Shared parallel matrices
   BLAS/LAPACK       :  OpenBLAS 0.3.15  USE64BITINT DYNAMIC_ARCH NO_AFFINITY Haswell SINGLE_THREADED
        Core in use  :  Haswell
   Copyright (c) 2011-2014, The OpenBLAS Project




***************************************
The coordinates will be read from file: ../../../../chem_database/Be.xyz
***************************************


================================================================================

----- Orbital basis set information -----
Your calculation utilizes the basis: cc-pVQZ 
       H, B-Ne : Obtained from the ccRepo (grant-hill.group.shef.ac.uk/ccrepo) Feb. 2017
                 T. H. Dunning, Jr., J. Chem. Phys. 90, 1007 (1989)
            He : Obtained from the ccRepo (grant-hill.group.shef.ac.uk/ccrepo) Feb. 2017
                 D. E. Woon, T. H. Dunning, Jr., J. Chem. Phys. 100, 2975 (1994)
  Li-Be, Na-Mg : Obtained from the ccRepo (grant-hill.group.shef.ac.uk/ccrepo) Feb. 2017
                 B. P. Prascher, D. E. Woon, K. A. Peterson, T. H. Dunning, Jr., A. K. Wilson, Theor. Chem. Acc. 128, 69 (2011)
         Al-Ar : Obtained from the ccRepo (grant-hill.group.shef.ac.uk/ccrepo) Feb. 2017
                 D. E. Woon, T. H. Dunning, Jr., J. Chem. Phys. 98, 1358 (1993)
            Ca : Obtained from the Peterson Research Group Website (tyr0.chem.wsu.edu/~kipeters) Feb. 2017
                 J. Koput, K. A. Peterson, J. Phys. Chem. 106, 9595 (2002)
         Sc-Zn : Obtained from the ccRepo (grant-hill.group.shef.ac.uk/ccrepo) Feb. 2017
                 N. B. Balabanov, K. A. Peterson, J. Chem. Phys. 123, 064107 (2005)
                 N. B. Balabanov, K. A. Peterson, J. Chem. Phys. 125, 074110 (2006)
         Ga-Kr : Obtained from the ccRepo (grant-hill.group.shef.ac.uk/ccrepo) Feb. 2017
                 A. K. Wilson, D. E. Woon, K. A. Peterson, T. H. Dunning, Jr., J. Chem. Phys. 110, 7667 (1999)

================================================================================
                                        WARNINGS
                       Please study these warnings very carefully!
================================================================================


INFO   : the flag for use of the SHARK integral package has been found!



***************************************
The coordinates will be read from file: ../../../../chem_database/Be.xyz
***************************************


================================================================================

----- Orbital basis set information -----
Your calculation utilizes the basis: cc-pVQZ 
       H, B-Ne : Obtained from the ccRepo (grant-hill.group.shef.ac.uk/ccrepo) Feb. 2017
                 T. H. Dunning, Jr., J. Chem. Phys. 90, 1007 (1989)
            He : Obtained from the ccRepo (grant-hill.group.shef.ac.uk/ccrepo) Feb. 2017
                 D. E. Woon, T. H. Dunning, Jr., J. Chem. Phys. 100, 2975 (1994)
  Li-Be, Na-Mg : Obtained from the ccRepo (grant-hill.group.shef.ac.uk/ccrepo) Feb. 2017
                 B. P. Prascher, D. E. Woon, K. A. Peterson, T. H. Dunning, Jr., A. K. Wilson, Theor. Chem. Acc. 128, 69 (2011)
         Al-Ar : Obtained from the ccRepo (grant-hill.group.shef.ac.uk/ccrepo) Feb. 2017
                 D. E. Woon, T. H. Dunning, Jr., J. Chem. Phys. 98, 1358 (1993)
            Ca : Obtained from the Peterson Research Group Website (tyr0.chem.wsu.edu/~kipeters) Feb. 2017
                 J. Koput, K. A. Peterson, J. Phys. Chem. 106, 9595 (2002)
         Sc-Zn : Obtained from the ccRepo (grant-hill.group.shef.ac.uk/ccrepo) Feb. 2017
                 N. B. Balabanov, K. A. Peterson, J. Chem. Phys. 123, 064107 (2005)
                 N. B. Balabanov, K. A. Peterson, J. Chem. Phys. 125, 074110 (2006)
         Ga-Kr : Obtained from the ccRepo (grant-hill.group.shef.ac.uk/ccrepo) Feb. 2017
                 A. K. Wilson, D. E. Woon, K. A. Peterson, T. H. Dunning, Jr., J. Chem. Phys. 110, 7667 (1999)

================================================================================
                                        WARNINGS
                       Please study these warnings very carefully!
================================================================================


INFO   : the flag for use of the SHARK integral package has been found!



***************************************
The coordinates will be read from file: ../../../../chem_database/Be.xyz
***************************************


================================================================================

----- Orbital basis set information -----
Your calculation utilizes the basis: cc-pVQZ 
       H, B-Ne : Obtained from the ccRepo (grant-hill.group.shef.ac.uk/ccrepo) Feb. 2017
                 T. H. Dunning, Jr., J. Chem. Phys. 90, 1007 (1989)
            He : Obtained from the ccRepo (grant-hill.group.shef.ac.uk/ccrepo) Feb. 2017
                 D. E. Woon, T. H. Dunning, Jr., J. Chem. Phys. 100, 2975 (1994)
  Li-Be, Na-Mg : Obtained from the ccRepo (grant-hill.group.shef.ac.uk/ccrepo) Feb. 2017
                 B. P. Prascher, D. E. Woon, K. A. Peterson, T. H. Dunning, Jr., A. K. Wilson, Theor. Chem. Acc. 128, 69 (2011)
         Al-Ar : Obtained from the ccRepo (grant-hill.group.shef.ac.uk/ccrepo) Feb. 2017
                 D. E. Woon, T. H. Dunning, Jr., J. Chem. Phys. 98, 1358 (1993)
            Ca : Obtained from the Peterson Research Group Website (tyr0.chem.wsu.edu/~kipeters) Feb. 2017
                 J. Koput, K. A. Peterson, J. Phys. Chem. 106, 9595 (2002)
         Sc-Zn : Obtained from the ccRepo (grant-hill.group.shef.ac.uk/ccrepo) Feb. 2017
                 N. B. Balabanov, K. A. Peterson, J. Chem. Phys. 123, 064107 (2005)
                 N. B. Balabanov, K. A. Peterson, J. Chem. Phys. 125, 074110 (2006)
         Ga-Kr : Obtained from the ccRepo (grant-hill.group.shef.ac.uk/ccrepo) Feb. 2017
                 A. K. Wilson, D. E. Woon, K. A. Peterson, T. H. Dunning, Jr., J. Chem. Phys. 110, 7667 (1999)

================================================================================
                                        WARNINGS
                       Please study these warnings very carefully!
================================================================================


INFO   : the flag for use of the SHARK integral package has been found!

================================================================================
                                       INPUT FILE
================================================================================
NAME = casscf.inp
|  1> # ================================================================
|  2> # Orca input file
|  3> # ================================================================
|  4> ! UHF cc-pVQZ KDIIS VeryTightSCF UseSym
|  5> ! PAL4
|  6> ! MOREAD
|  7> 
|  8> %moinp "mol.mp2nat"
|  9> 
| 10> %casscf
| 11>   irrep 0
| 12>   nel  2
| 13>   norb 4
| 14>   CIStep ice
| 15>   ci
| 16>     TPrintWF 0.00003
| 17>   end
| 18> end
| 19> 
| 20> * xyzfile 0 1 ../../../../chem_database/Be.xyz
| 21> 
| 22> $new_job
| 23> ! cc-pVQZ VeryTightSCF
| 24> ! MOREAD NOITER
| 25> 
| 26> %moinp "casscf.gbw"
| 27> 
| 28> %casscf
| 29>   irrep 0
| 30>   nel  2
| 31>   norb 4
| 32>   PrintWF det
| 33>   ci
| 34>     TPrintWF 0.00003
| 35>   end
| 36> end
| 37> 
| 38> * xyzfile 0 1 ../../../../chem_database/Be.xyz
| 39> 
| 40> $new_job
| 41> ! cc-pVQZ VeryTightSCF
| 42> ! MOREAD NOITER
| 43> 
| 44> %moinp "casscf.gbw"
| 45> 
| 46> %casscf
| 47>   irrep 0
| 48>   nel  2
| 49>   norb 4
| 50>   PrintWF csf
| 51>   ci
| 52>     TPrintWF 0.00003
| 53>   end
| 54> end
| 55> 
| 56> * xyzfile 0 1 ../../../../chem_database/Be.xyz
| 57> 
| 58>                          ****END OF INPUT****
================================================================================


                 $$$$$$$$$$$$$$$$$$$$$$$$$$$$$$$$$$$$$$$$$$$$$$ 
                 $ THERE ARE  3 JOBS TO BE PROCESSED THIS RUN $
                 $$$$$$$$$$$$$$$$$$$$$$$$$$$$$$$$$$$$$$$$$$$$$$ 




                 $$$$$$$$$$$$$$$$  JOB NUMBER  1 $$$$$$$$$$$$$$


------------------------------------------------------------------------------
                            SYMMETRY HANDLING SETUP
------------------------------------------------------------------------------

------------------
SYMMETRY DETECTION
------------------
The point group will now be determined using a tolerance of 1.0000e-04.
The Z matrix contains a single non-dummy atom.
No further testing needed for point group Kh.
This point group has been found:    Kh
Largest non-degenerate subgroup:    D2h


Symmetry-perfected Cartesians (point groups Kh and D2h):

Atom          Symmetry-perfected Cartesians (x, y, z; au)
  0       0.000000000000    0.000000000000    0.000000000000


-----------------------------------------------
SYMMETRY-PERFECTED CARTESIAN COORDINATES (A.U.)
-----------------------------------------------
Warning (ORCA_SYM): Coordinates were not cleaned so far!

------------------
SYMMETRY REDUCTION
------------------
ORCA supports only abelian point groups.
It is now checked, if the determined point group is supported:
Point Group ( D2h   ) is          ... supported

(Re)building abelian point group:
Creating Character Table          ... done
Making direct product table       ... done
Constructing symmetry operations  ... done
Creating atom transfer table      ... done
Creating asymmetric unit          ... done

----------------------
ASYMMETRIC UNIT IN D2h
----------------------
  #  AT     MASS              COORDS (A.U.)             BAS
   0 Be   9.0120   0.00000000   0.00000000   0.00000000   0

----------------------
SYMMETRY ADAPTED BASIS
----------------------
The coefficients for the symmetry adapted linear combinations (SALCS)
of basis functions will now be computed:
Number of basis functions         ...    55
Preparing memory                  ... done
Constructing Gamma(red)           ... done
Reducing Gamma(red)               ... done
Constructing SALCs                ... done
Checking SALC integrity           ... nothing suspicious
Normalizing SALCs                 ... done

Storing the symmetry object:
Symmetry file                     ... casscf.sym.tmp
Writing symmetry information      ... done

                       ****************************
                       * Single Point Calculation *
                       ****************************

---------------------------------
CARTESIAN COORDINATES (ANGSTROEM)
---------------------------------
  Be     0.000000    0.000000    0.000000

----------------------------
CARTESIAN COORDINATES (A.U.)
----------------------------
  NO LB      ZA    FRAG     MASS         X           Y           Z
   0 Be    4.0000    0     9.012    0.000000    0.000000    0.000000

--------------------------------
INTERNAL COORDINATES (ANGSTROEM)
--------------------------------
 Be     0   0   0     0.000000000000     0.00000000     0.00000000

---------------------------
INTERNAL COORDINATES (A.U.)
---------------------------
 Be     0   0   0     0.000000000000     0.00000000     0.00000000

---------------------
BASIS SET INFORMATION
---------------------
There are 1 groups of distinct atoms

 Group   1 Type Be  : 21s6p3d2f1g contracted to 5s4p3d2f1g pattern {99111/3111/111/11/1}

Atom   0Be   basis set group =>   1


           ************************************************************
           *        Program running with 4 parallel MPI-processes     *
           *              working on a common directory               *
           ************************************************************
------------------------------------------------------------------------------
                           ORCA GTO INTEGRAL CALCULATION
------------------------------------------------------------------------------
------------------------------------------------------------------------------
                   ___                                                        
                  /   \      - P O W E R E D   B Y -                         
                 /     \                                                     
                 |  |  |   _    _      __       _____    __    __             
                 |  |  |  | |  | |    /  \     |  _  \  |  |  /  |          
                  \  \/   | |  | |   /    \    | | | |  |  | /  /          
                 / \  \   | |__| |  /  /\  \   | |_| |  |  |/  /          
                |  |  |   |  __  | /  /__\  \  |    /   |      \           
                |  |  |   | |  | | |   __   |  |    \   |  |\   \          
                \     /   | |  | | |  |  |  |  | |\  \  |  | \   \       
                 \___/    |_|  |_| |__|  |__|  |_| \__\ |__|  \__/        
                                                                              
                      - O R C A' S   B I G   F R I E N D -                    
                                      &                                       
                       - I N T E G R A L  F E E D E R -                       
                                                                              
 v1 FN, 2020, v2 2021                                                         
------------------------------------------------------------------------------


Reading SHARK input file casscf.SHARKINP.tmp ... ok
----------------------
SHARK INTEGRAL PACKAGE
----------------------

Number of atoms                             ...      1
Number of basis functions                   ...     62
Number of shells                            ...     22
Maximum angular momentum                    ...      4
Integral batch strategy                     ... SHARK/LIBINT Hybrid
RI-J (if used) integral strategy            ... SPLIT-RIJ (Revised 2003 algorithm where possible)
Printlevel                                  ...      1
Contraction scheme used                     ... PARTIAL GENERAL contraction
Coulomb Range Separation                    ... NOT USED
Exchange Range Separation                   ... NOT USED
Finite Nucleus Model                        ... NOT USED
Auxiliary Coulomb fitting basis             ... NOT available
Auxiliary J/K fitting basis                 ... NOT available
Auxiliary Correlation fitting basis         ... NOT available
Auxiliary 'external' fitting basis          ... NOT available
Integral threshold                          ...     1.000000e-12
Primitive cut-off                           ...     1.000000e-14
Primitive pair pre-selection threshold      ...     1.000000e-14

Calculating pre-screening integrals         ... done (  0.0 sec) Dimension = 22
Calculating pre-screening integrals (ORCA)  ... done (  0.1 sec) Dimension = 15
Organizing shell pair data                  ... done (  0.0 sec)
Shell pair information
Total number of shell pairs                 ...       253
Shell pairs after pre-screening             ...       253
Total number of primitive shell pairs       ...       303
Primitive shell pairs kept                  ...       303
          la=0 lb=0:     78 shell pairs
          la=1 lb=0:     48 shell pairs
          la=1 lb=1:     10 shell pairs
          la=2 lb=0:     36 shell pairs
          la=2 lb=1:     12 shell pairs
          la=2 lb=2:      6 shell pairs
          la=3 lb=0:     24 shell pairs
          la=3 lb=1:      8 shell pairs
          la=3 lb=2:      6 shell pairs
          la=3 lb=3:      3 shell pairs
          la=4 lb=0:     12 shell pairs
          la=4 lb=1:      4 shell pairs
          la=4 lb=2:      3 shell pairs
          la=4 lb=3:      2 shell pairs
          la=4 lb=4:      1 shell pairs

Calculating one electron integrals          ... done (  0.0 sec)
Calculating Nuclear repulsion               ... done (  0.0 sec) ENN=      0.000000000000 Eh

SHARK setup successfully completed in   0.2 seconds

Maximum memory used throughout the entire GTOINT-calculation: 29.1 MB


           ************************************************************
           *        Program running with 4 parallel MPI-processes     *
           *              working on a common directory               *
           ************************************************************
-------------------------------------------------------------------------------
                                 ORCA SCF
-------------------------------------------------------------------------------

------------
SCF SETTINGS
------------
Hamiltonian:
 Ab initio Hamiltonian  Method          .... Hartree-Fock(GTOs)


General Settings:
 Integral files         IntName         .... casscf
 Hartree-Fock type      HFTyp           .... CASSCF
 Total Charge           Charge          ....    0
 Multiplicity           Mult            ....    1
 Number of Electrons    NEL             ....    4
 Basis Dimension        Dim             ....   55
 Nuclear Repulsion      ENuc            ....      0.0000000000 Eh

 Symmetry handling      UseSym         .... ON
 Point group                           .... D2h
 Used point group                      .... D2h
 Number of irreps                      .... 8
   Irrep   Ag has   14 symmetry adapted basis functions (ofs=   0)
   Irrep  B1g has    5 symmetry adapted basis functions (ofs=  14)
   Irrep  B2g has    5 symmetry adapted basis functions (ofs=  19)
   Irrep  B3g has    5 symmetry adapted basis functions (ofs=  24)
   Irrep   Au has    2 symmetry adapted basis functions (ofs=  29)
   Irrep  B1u has    8 symmetry adapted basis functions (ofs=  31)
   Irrep  B2u has    8 symmetry adapted basis functions (ofs=  39)
   Irrep  B3u has    8 symmetry adapted basis functions (ofs=  47)


Diagonalization of the overlap matrix:
Smallest eigenvalue                        ... 6.752e-03
Time for diagonalization                   ...    0.001 sec
Threshold for overlap eigenvalues          ... 1.000e-08
Number of eigenvalues below threshold      ... 0
Time for construction of square roots      ...    0.001 sec
Producing symmetrization matrix            ... done (   0.000 sec)
Total time needed                          ...    0.002 sec

---------------------
INITIAL GUESS: MOREAD
---------------------
Guess MOs are being read from file: mol.mp2nat
Input Geometry matches current geometry (good)
Input basis set matches current basis set (good)
Warning: Geometry matches/Basis set matches and symmetry is to be used
         We proceed in good trust that the input orbitals and irreps are correct
MOs were renormalized
Gram-Schmidt orthogonalization of all MOs with pivot on actives
Irrep occupations for operator 0
    Ag -   14
   B1g -    5
   B2g -    5
   B3g -    5
    Au -    2
   B1u -    8
   B2u -    8
   B3u -    8
                      ------------------
                      INITIAL GUESS DONE (   0.0 sec)
                      ------------------


 ... the calculation is a CASSCF calculation -I'm leaving here GOOD LUCK!!!



           ************************************************************
           *        Program running with 4 parallel MPI-processes     *
           *              working on a common directory               *
           ************************************************************
-------------------------------------------------------------------------------
                              ORCA-CASSCF
-------------------------------------------------------------------------------

Symmetry handling      UseSym     ... ON
Point group                       ... D2h
Used point group                  ... D2h
Number of irreps                  ... 8
   Irrep   Ag has   14 SALCs (ofs=   0) #(closed)=   1 #(active)=   1
   Irrep  B1g has    5 SALCs (ofs=  14) #(closed)=   0 #(active)=   0
   Irrep  B2g has    5 SALCs (ofs=  19) #(closed)=   0 #(active)=   0
   Irrep  B3g has    5 SALCs (ofs=  24) #(closed)=   0 #(active)=   0
   Irrep   Au has    2 SALCs (ofs=  29) #(closed)=   0 #(active)=   0
   Irrep  B1u has    8 SALCs (ofs=  31) #(closed)=   0 #(active)=   1
   Irrep  B2u has    8 SALCs (ofs=  39) #(closed)=   0 #(active)=   1
   Irrep  B3u has    8 SALCs (ofs=  47) #(closed)=   0 #(active)=   1
 Symmetries of active orbitals:
   MO =    1  IRREP= 0 (Ag)
   MO =    2  IRREP= 6 (B2u)
   MO =    3  IRREP= 7 (B3u)
   MO =    4  IRREP= 5 (B1u)

Setting up the integral package       ... done
Setting up CIPSI                      ... 


Checking CIPSI (ICE) Settings:
     MaxDim    10
     UsingRI   1
     CIPSISweepWindow   -1
     CIETol    1.000e-09
     CIRTol    1.000e-09
     NGMat     512
done (  0.0 sec)

SYSTEM-SPECIFIC SETTINGS:
Number of active electrons          ...    2
Number of active orbitals           ...    4
Total number of electrons           ...    4
Total number of orbitals            ...   55

Determined orbital ranges:
   Internal       0 -    0 (   1 orbitals)
   Active         1 -    4 (   4 orbitals)
   External       5 -   54 (  50 orbitals)
Number of rotation parameters      ...     46

CI-STEP:
CI strategy                         ... ICE (approximate)
Number of symmetry/multplity blocks ...    1
BLOCK  1 WEIGHT=   1.0000
  Multiplicity                      ...    1
  Irrep                             ...    0 (Ag)
  #(Roots)                          ...    1
    ROOT=0 WEIGHT=    1.000000

  PrintLevel                        ...    1
  N(GuessMat)                       ...       512
  MaxDim(CI)                        ...        10
  MaxIter(CI)                       ...        64
  Energy Tolerance CI               ... -1.00e+00
  Residual Tolerance CI             ... -1.00e+00
  Shift(CI)                         ...  1.00e-04
  ICE TGen                          ... 1.000e-04
  ICE TVar                          ... 1.000e-11
  ICE Type                          ... 0

INTEGRAL-TRANSFORMATION-STEP:
  Algorithm                         ... EXACT

ORBITAL-IMPROVEMENT-STEP:
  Algorithm                         ... KDIIS
  Default Parametrization           ... CAYLEY
  Act-Act rotations                 ... depends on algorithm used
  FreezeIE                          ... 95.00% of ||g||
  Until reaching FreezeIE rotations with active orbitals are damped. 

  Approx. Fock at                   ... 1.000000e-02 density convergence
  Upward level shift                ...  2.00e-01 
  Downward level shift              ...  0.00e+00 

  Note: SuperCI(PT) will ignore FreezeIE, FreezeAct and FreezeGrad. In general Default settings are encouraged.
        In conjunction with ShiftUp, ShiftDn or GradScaling the performance of SuperCI(PT) is less optimal.  

  Max. no of vectors                ... 15
  Switch step at gradient           ... -1.00e+00 
  Switch step at iteration          ...    100000   
  Switch step to                    ... SuperCI(PT)    

SCF-SETTINGS:
  Incremental                       ... on
  RIJCOSX approximation             ... off
  RI-JK approximation               ... off
  AO integral handling              ... DIRECT
  Integral Neglect Thresh           ...  1.00e-12
  Primitive cutoff TCut             ...  1.00e-14
  Energy convergence tolerance      ...  1.00e-08
  Orbital gradient convergence      ...  1.00e-05
  Max. number of iterations         ...        75  


FINAL ORBITALS:
  Active   Orbitals                 ... natural 
  Internal Orbitals                 ... canonical 
  External Orbitals                 ... canonical 

------------------
CAS-SCF ITERATIONS
------------------


MACRO-ITERATION   1: 
   --- Canonicalize Internal Space
   --- Canonicalize External Space
   --- Inactive Energy E0 = -13.60695297 Eh
Warning: bug with use of symmetry - not using it

                    ******************************
                    *  ICECI MACROITERATION   1  *
                    ******************************

   # of active configurations =      4
Calling BuildCouplings_RI UseCCLib=0 DoRISX=0
CI_BuildCouplings NCFG= 4 NORB=4 NEL=2 UseCCLib=0 MaxCore=1024
         PASS 1 completed. NCFG= 4 NCFGK= 10 MaxNSOMOI=0 MaxNSOMOK=2
         PASS 2 completed.
         PASS 3 completed.
         Memory used for RI tree              =    0.00 MB (av. dim=     1)
         Memory used for ONE tree             =    0.00 MB (av. dim=     1)
         Memory used for coupling coefficients=    0.00 MB

                       ****Iteration    0****
   Maximum residual norm  :     0.000000000000

      *** CONVERGENCE OF RESIDUAL NORM REACHED ***
STATE   0 MULT= 1: E=    -14.6153254020 Eh W=  1.0000 DE= 0.000 eV      0.0 cm**-1
      0.91171  : 2000
      0.02943  : 0002
      0.02943  : 0020
   # of selected configurations          ...      4
   # of generator configurations         ...      4 (NEW=1 (CREF=4))
   Performing single and double excitations relative to generators ... done (  0.0 sec)
   # of configurations after S+D         ...     10
   Selecting from the generated configurations  ...    # of configurations after Selection  ...      4
   ==>>> CI space seems to have converged. No new configurations

                    ******************************
                    *  ICECI MACROITERATION   2  *
                    ******************************

   # of active configurations =      4
   # of selected configurations          ...      4
   # of generator configurations         ...      4 (NEW=1 (CREF=4))
   Performing single and double excitations relative to generators ... done (  0.0 sec)
   # of configurations after S+D         ...     10
   Selecting from the generated configurations  ...    # of configurations after Selection  ...      4
   ==>>> CI space seems to have converged. No new configurations
   maximum energy change                ... 0.000e+00 Eh
Calling BuildCouplings_RI UseCCLib=0 DoRISX=0
CI_BuildCouplings NCFG= 4 NORB=4 NEL=2 UseCCLib=0 MaxCore=1024
         PASS 1 completed. NCFG= 4 NCFGK= 10 MaxNSOMOI=0 MaxNSOMOK=2
         PASS 2 completed.
         PASS 3 completed.
         Memory used for RI tree              =    0.00 MB (av. dim=     1)
         Memory used for ONE tree             =    0.00 MB (av. dim=     1)
         Memory used for coupling coefficients=    0.00 MB

                       ****Iteration    0****
   Maximum residual norm  :     0.000000000000

      *** CONVERGENCE OF RESIDUAL NORM REACHED ***
STATE   0 MULT= 1: E=    -14.6153254020 Eh W=  1.0000 DE= 0.000 eV      0.0 cm**-1
      0.91171  : 2000
      0.02943  : 0002
      0.02943  : 0200


FINAL CIPSI ENERGIES
  Final CIPSI Energy Root   0:    -14.615325402 EH
   CI-PROBLEM SOLVED (  0.0 sec)
   DENSITIES MADE

                 <<<<<<<<<<<<<<<<<<INITIAL CI STATE CHECK>>>>>>>>>>>>>>>>>>

BLOCK  1 MULT= 1 NROOTS= 1  IRREP=Ag 
STATE   0 MULT= 1: E=    -14.6153254020 Eh W=  1.0000 DE= 0.000 eV      0.0 cm**-1
      0.91171  : 2000
      0.02943  : 0002
      0.02943  : 0200

                 <<<<<<<<<<<<<<<<<<INITIAL CI STATE CHECK>>>>>>>>>>>>>>>>>>

   E(CAS)=   -14.615325402 Eh DE=    0.000000e+00
   --- Energy gap subspaces: Ext-Act = 0.046   Act-Int = 4.441
   N(occ)=  1.82343 0.05886 0.05886 0.05886
   ||g|| =     5.333129e-02 Max(G)=   -4.364620e-02 Rot=5,1
   --- Orbital Update [     KDIIS]
                             ****Turning on KDIIS****
   --- Density off from convergence (1.323e+00). Exact active Fock build

MACRO-ITERATION   2: 
   --- Inactive Energy E0 = -13.60979314 Eh
Warning: bug with use of symmetry - not using it

                    ******************************
                    *  ICECI MACROITERATION   1  *
                    ******************************

   # of active configurations =      4
Calling BuildCouplings_RI UseCCLib=0 DoRISX=0
CI_BuildCouplings NCFG= 4 NORB=4 NEL=2 UseCCLib=0 MaxCore=1024
         PASS 1 completed. NCFG= 4 NCFGK= 10 MaxNSOMOI=0 MaxNSOMOK=2
         PASS 2 completed.
         PASS 3 completed.
         Memory used for RI tree              =    0.00 MB (av. dim=     1)
         Memory used for ONE tree             =    0.00 MB (av. dim=     1)
         Memory used for coupling coefficients=    0.00 MB

                       ****Iteration    0****
   Maximum residual norm  :     0.000000000000

      *** CONVERGENCE OF RESIDUAL NORM REACHED ***
STATE   0 MULT= 1: E=    -14.6153361879 Eh W=  1.0000 DE= 0.000 eV      0.0 cm**-1
      0.89976  : 2000
      0.03341  : 0200
      0.03341  : 0020
   # of selected configurations          ...      4
   # of generator configurations         ...      4 (NEW=1 (CREF=4))
   Performing single and double excitations relative to generators ... done (  0.0 sec)
   # of configurations after S+D         ...     10
   Selecting from the generated configurations  ...    # of configurations after Selection  ...      4
   ==>>> CI space seems to have converged. No new configurations

                    ******************************
                    *  ICECI MACROITERATION   2  *
                    ******************************

   # of active configurations =      4
   # of selected configurations          ...      4
   # of generator configurations         ...      4 (NEW=1 (CREF=4))
   Performing single and double excitations relative to generators ... done (  0.0 sec)
   # of configurations after S+D         ...     10
   Selecting from the generated configurations  ...    # of configurations after Selection  ...      4
   ==>>> CI space seems to have converged. No new configurations
   maximum energy change                ... 0.000e+00 Eh
Calling BuildCouplings_RI UseCCLib=0 DoRISX=0
CI_BuildCouplings NCFG= 4 NORB=4 NEL=2 UseCCLib=0 MaxCore=1024
         PASS 1 completed. NCFG= 4 NCFGK= 10 MaxNSOMOI=0 MaxNSOMOK=2
         PASS 2 completed.
         PASS 3 completed.
         Memory used for RI tree              =    0.00 MB (av. dim=     1)
         Memory used for ONE tree             =    0.00 MB (av. dim=     1)
         Memory used for coupling coefficients=    0.00 MB

                       ****Iteration    0****
   Maximum residual norm  :     0.000000000000

      *** CONVERGENCE OF RESIDUAL NORM REACHED ***
STATE   0 MULT= 1: E=    -14.6153361879 Eh W=  1.0000 DE= 0.000 eV      0.0 cm**-1
      0.89976  : 2000
      0.03341  : 0200
      0.03341  : 0020


FINAL CIPSI ENERGIES
  Final CIPSI Energy Root   0:    -14.615336188 EH
   CI-PROBLEM SOLVED (  0.0 sec)
   DENSITIES MADE
   E(CAS)=   -14.615336188 Eh DE=   -1.078591e-05
   --- Energy gap subspaces: Ext-Act = 0.043   Act-Int = 4.419
   N(occ)=  1.79951 0.06683 0.06683 0.06683
   ||g|| =     7.674723e-02 Max(G)=    5.539215e-02 Rot=5,1
   --- Orbital Update [     KDIIS]
   --- Density off from convergence (2.367e-02). Exact active Fock build

MACRO-ITERATION   3: 
   --- Inactive Energy E0 = -13.60999619 Eh
Warning: bug with use of symmetry - not using it

                    ******************************
                    *  ICECI MACROITERATION   1  *
                    ******************************

   # of active configurations =      4
Calling BuildCouplings_RI UseCCLib=0 DoRISX=0
CI_BuildCouplings NCFG= 4 NORB=4 NEL=2 UseCCLib=0 MaxCore=1024
         PASS 1 completed. NCFG= 4 NCFGK= 10 MaxNSOMOI=0 MaxNSOMOK=2
         PASS 2 completed.
         PASS 3 completed.
         Memory used for RI tree              =    0.00 MB (av. dim=     1)
         Memory used for ONE tree             =    0.00 MB (av. dim=     1)
         Memory used for coupling coefficients=    0.00 MB

                       ****Iteration    0****
   Maximum residual norm  :     0.000000000000

      *** CONVERGENCE OF RESIDUAL NORM REACHED ***
STATE   0 MULT= 1: E=    -14.6166118881 Eh W=  1.0000 DE= 0.000 eV      0.0 cm**-1
      0.90448  : 2000
      0.03184  : 0020
      0.03184  : 0002
   # of selected configurations          ...      4
   # of generator configurations         ...      4 (NEW=1 (CREF=4))
   Performing single and double excitations relative to generators ... done (  0.0 sec)
   # of configurations after S+D         ...     10
   Selecting from the generated configurations  ...    # of configurations after Selection  ...      4
   ==>>> CI space seems to have converged. No new configurations

                    ******************************
                    *  ICECI MACROITERATION   2  *
                    ******************************

   # of active configurations =      4
   # of selected configurations          ...      4
   # of generator configurations         ...      4 (NEW=1 (CREF=4))
   Performing single and double excitations relative to generators ... done (  0.0 sec)
   # of configurations after S+D         ...     10
   Selecting from the generated configurations  ...    # of configurations after Selection  ...      4
   ==>>> CI space seems to have converged. No new configurations
   maximum energy change                ... 0.000e+00 Eh
Calling BuildCouplings_RI UseCCLib=0 DoRISX=0
CI_BuildCouplings NCFG= 4 NORB=4 NEL=2 UseCCLib=0 MaxCore=1024
         PASS 1 completed. NCFG= 4 NCFGK= 10 MaxNSOMOI=0 MaxNSOMOK=2
         PASS 2 completed.
         PASS 3 completed.
         Memory used for RI tree              =    0.00 MB (av. dim=     1)
         Memory used for ONE tree             =    0.00 MB (av. dim=     1)
         Memory used for coupling coefficients=    0.00 MB

                       ****Iteration    0****
   Maximum residual norm  :     0.000000000000

      *** CONVERGENCE OF RESIDUAL NORM REACHED ***
STATE   0 MULT= 1: E=    -14.6166118881 Eh W=  1.0000 DE= 0.000 eV      0.0 cm**-1
      0.90448  : 2000
      0.03184  : 0020
      0.03184  : 0002


FINAL CIPSI ENERGIES
  Final CIPSI Energy Root   0:    -14.616611888 EH
   CI-PROBLEM SOLVED (  0.0 sec)
   DENSITIES MADE
   E(CAS)=   -14.616611888 Eh DE=   -1.275700e-03
   --- Energy gap subspaces: Ext-Act = 0.049   Act-Int = 4.437
   N(occ)=  1.80896 0.06368 0.06368 0.06368
   ||g|| =     2.733827e-02 Max(G)=   -2.138188e-02 Rot=9,1
   --- Orbital Update [     KDIIS]
   --- Density close to convergence (9.716e-03). Approximate active Fock build

MACRO-ITERATION   4: 
   --- Inactive Energy E0 = -13.61007301 Eh
Warning: bug with use of symmetry - not using it

                    ******************************
                    *  ICECI MACROITERATION   1  *
                    ******************************

   # of active configurations =      4
Calling BuildCouplings_RI UseCCLib=0 DoRISX=0
CI_BuildCouplings NCFG= 4 NORB=4 NEL=2 UseCCLib=0 MaxCore=1024
         PASS 1 completed. NCFG= 4 NCFGK= 10 MaxNSOMOI=0 MaxNSOMOK=2
         PASS 2 completed.
         PASS 3 completed.
         Memory used for RI tree              =    0.00 MB (av. dim=     1)
         Memory used for ONE tree             =    0.00 MB (av. dim=     1)
         Memory used for coupling coefficients=    0.00 MB

                       ****Iteration    0****
   Maximum residual norm  :     0.000000000000

      *** CONVERGENCE OF RESIDUAL NORM REACHED ***
STATE   0 MULT= 1: E=    -14.6167306541 Eh W=  1.0000 DE= 0.000 eV      0.0 cm**-1
      0.90327  : 2000
      0.03224  : 0200
      0.03224  : 0020
   # of selected configurations          ...      4
   # of generator configurations         ...      4 (NEW=1 (CREF=4))
   Performing single and double excitations relative to generators ... done (  0.0 sec)
   # of configurations after S+D         ...     10
   Selecting from the generated configurations  ...    # of configurations after Selection  ...      4
   ==>>> CI space seems to have converged. No new configurations

                    ******************************
                    *  ICECI MACROITERATION   2  *
                    ******************************

   # of active configurations =      4
   # of selected configurations          ...      4
   # of generator configurations         ...      4 (NEW=1 (CREF=4))
   Performing single and double excitations relative to generators ... done (  0.0 sec)
   # of configurations after S+D         ...     10
   Selecting from the generated configurations  ...    # of configurations after Selection  ...      4
   ==>>> CI space seems to have converged. No new configurations
   maximum energy change                ... 0.000e+00 Eh
Calling BuildCouplings_RI UseCCLib=0 DoRISX=0
CI_BuildCouplings NCFG= 4 NORB=4 NEL=2 UseCCLib=0 MaxCore=1024
         PASS 1 completed. NCFG= 4 NCFGK= 10 MaxNSOMOI=0 MaxNSOMOK=2
         PASS 2 completed.
         PASS 3 completed.
         Memory used for RI tree              =    0.00 MB (av. dim=     1)
         Memory used for ONE tree             =    0.00 MB (av. dim=     1)
         Memory used for coupling coefficients=    0.00 MB

                       ****Iteration    0****
   Maximum residual norm  :     0.000000000000

      *** CONVERGENCE OF RESIDUAL NORM REACHED ***
STATE   0 MULT= 1: E=    -14.6167306541 Eh W=  1.0000 DE= 0.000 eV      0.0 cm**-1
      0.90327  : 2000
      0.03224  : 0200
      0.03224  : 0020


FINAL CIPSI ENERGIES
  Final CIPSI Energy Root   0:    -14.616730654 EH
   CI-PROBLEM SOLVED (  0.0 sec)
   DENSITIES MADE
   E(CAS)=   -14.616730654 Eh DE=   -1.187660e-04
   --- Energy gap subspaces: Ext-Act = 0.050   Act-Int = 4.433
   N(occ)=  1.80654 0.06449 0.06449 0.06449
   ||g|| =     1.595673e-02 Max(G)=    9.642684e-03 Rot=44,1
   --- Orbital Update [     KDIIS]
   --- Density close to convergence (2.411e-03). Approximate active Fock build

MACRO-ITERATION   5: 
   --- Inactive Energy E0 = -13.61012603 Eh
Warning: bug with use of symmetry - not using it

                    ******************************
                    *  ICECI MACROITERATION   1  *
                    ******************************

   # of active configurations =      4
Calling BuildCouplings_RI UseCCLib=0 DoRISX=0
CI_BuildCouplings NCFG= 4 NORB=4 NEL=2 UseCCLib=0 MaxCore=1024
         PASS 1 completed. NCFG= 4 NCFGK= 10 MaxNSOMOI=0 MaxNSOMOK=2
         PASS 2 completed.
         PASS 3 completed.
         Memory used for RI tree              =    0.00 MB (av. dim=     1)
         Memory used for ONE tree             =    0.00 MB (av. dim=     1)
         Memory used for coupling coefficients=    0.00 MB

                       ****Iteration    0****
   Maximum residual norm  :     0.000000000000

      *** CONVERGENCE OF RESIDUAL NORM REACHED ***
STATE   0 MULT= 1: E=    -14.6167538390 Eh W=  1.0000 DE= 0.000 eV      0.0 cm**-1
      0.90277  : 2000
      0.03241  : 0200
      0.03241  : 0020
   # of selected configurations          ...      4
   # of generator configurations         ...      4 (NEW=1 (CREF=4))
   Performing single and double excitations relative to generators ... done (  0.0 sec)
   # of configurations after S+D         ...     10
   Selecting from the generated configurations  ...    # of configurations after Selection  ...      4
   ==>>> CI space seems to have converged. No new configurations

                    ******************************
                    *  ICECI MACROITERATION   2  *
                    ******************************

   # of active configurations =      4
   # of selected configurations          ...      4
   # of generator configurations         ...      4 (NEW=1 (CREF=4))
   Performing single and double excitations relative to generators ... done (  0.0 sec)
   # of configurations after S+D         ...     10
   Selecting from the generated configurations  ...    # of configurations after Selection  ...      4
   ==>>> CI space seems to have converged. No new configurations
   maximum energy change                ... 0.000e+00 Eh
Calling BuildCouplings_RI UseCCLib=0 DoRISX=0
CI_BuildCouplings NCFG= 4 NORB=4 NEL=2 UseCCLib=0 MaxCore=1024
         PASS 1 completed. NCFG= 4 NCFGK= 10 MaxNSOMOI=0 MaxNSOMOK=2
         PASS 2 completed.
         PASS 3 completed.
         Memory used for RI tree              =    0.00 MB (av. dim=     1)
         Memory used for ONE tree             =    0.00 MB (av. dim=     1)
         Memory used for coupling coefficients=    0.00 MB

                       ****Iteration    0****
   Maximum residual norm  :     0.000000000000

      *** CONVERGENCE OF RESIDUAL NORM REACHED ***
STATE   0 MULT= 1: E=    -14.6167538390 Eh W=  1.0000 DE= 0.000 eV      0.0 cm**-1
      0.90277  : 2000
      0.03241  : 0200
      0.03241  : 0020


FINAL CIPSI ENERGIES
  Final CIPSI Energy Root   0:    -14.616753839 EH
   CI-PROBLEM SOLVED (  0.0 sec)
   DENSITIES MADE
   E(CAS)=   -14.616753839 Eh DE=   -2.318486e-05
   --- Energy gap subspaces: Ext-Act = 0.051   Act-Int = 4.435
   N(occ)=  1.80553 0.06482 0.06482 0.06482
   ||g|| =     1.659712e-02 Max(G)=   -1.226056e-02 Rot=44,1
   --- Orbital Update [     KDIIS]
   --- Density close to convergence (1.015e-03). Approximate active Fock build

MACRO-ITERATION   6: 
   --- Inactive Energy E0 = -13.61009091 Eh
Warning: bug with use of symmetry - not using it

                    ******************************
                    *  ICECI MACROITERATION   1  *
                    ******************************

   # of active configurations =      4
Calling BuildCouplings_RI UseCCLib=0 DoRISX=0
CI_BuildCouplings NCFG= 4 NORB=4 NEL=2 UseCCLib=0 MaxCore=1024
         PASS 1 completed. NCFG= 4 NCFGK= 10 MaxNSOMOI=0 MaxNSOMOK=2
         PASS 2 completed.
         PASS 3 completed.
         Memory used for RI tree              =    0.00 MB (av. dim=     1)
         Memory used for ONE tree             =    0.00 MB (av. dim=     1)
         Memory used for coupling coefficients=    0.00 MB

                       ****Iteration    0****
   Maximum residual norm  :     0.000000000000

      *** CONVERGENCE OF RESIDUAL NORM REACHED ***
STATE   0 MULT= 1: E=    -14.6167619517 Eh W=  1.0000 DE= 0.000 eV      0.0 cm**-1
      0.90259  : 2000
      0.03247  : 0020
      0.03247  : 0002
   # of selected configurations          ...      4
   # of generator configurations         ...      4 (NEW=1 (CREF=4))
   Performing single and double excitations relative to generators ... done (  0.0 sec)
   # of configurations after S+D         ...     10
   Selecting from the generated configurations  ...    # of configurations after Selection  ...      4
   ==>>> CI space seems to have converged. No new configurations

                    ******************************
                    *  ICECI MACROITERATION   2  *
                    ******************************

   # of active configurations =      4
   # of selected configurations          ...      4
   # of generator configurations         ...      4 (NEW=1 (CREF=4))
   Performing single and double excitations relative to generators ... done (  0.0 sec)
   # of configurations after S+D         ...     10
   Selecting from the generated configurations  ...    # of configurations after Selection  ...      4
   ==>>> CI space seems to have converged. No new configurations
   maximum energy change                ... 0.000e+00 Eh
Calling BuildCouplings_RI UseCCLib=0 DoRISX=0
CI_BuildCouplings NCFG= 4 NORB=4 NEL=2 UseCCLib=0 MaxCore=1024
         PASS 1 completed. NCFG= 4 NCFGK= 10 MaxNSOMOI=0 MaxNSOMOK=2
         PASS 2 completed.
         PASS 3 completed.
         Memory used for RI tree              =    0.00 MB (av. dim=     1)
         Memory used for ONE tree             =    0.00 MB (av. dim=     1)
         Memory used for coupling coefficients=    0.00 MB

                       ****Iteration    0****
   Maximum residual norm  :     0.000000000000

      *** CONVERGENCE OF RESIDUAL NORM REACHED ***
STATE   0 MULT= 1: E=    -14.6167619517 Eh W=  1.0000 DE= 0.000 eV      0.0 cm**-1
      0.90259  : 2000
      0.03247  : 0002
      0.03247  : 0200


FINAL CIPSI ENERGIES
  Final CIPSI Energy Root   0:    -14.616761952 EH
   CI-PROBLEM SOLVED (  0.0 sec)
   DENSITIES MADE
   E(CAS)=   -14.616761952 Eh DE=   -8.112688e-06
   --- Energy gap subspaces: Ext-Act = 0.051   Act-Int = 4.434
   N(occ)=  1.80518 0.06494 0.06494 0.06494
   ||g|| =     1.126524e-02 Max(G)=    9.605027e-03 Rot=44,1
   --- Orbital Update [     KDIIS]
   --- Density close to convergence (3.469e-04). Approximate active Fock build

MACRO-ITERATION   7: 
   --- Inactive Energy E0 = -13.61010182 Eh
Warning: bug with use of symmetry - not using it

                    ******************************
                    *  ICECI MACROITERATION   1  *
                    ******************************

   # of active configurations =      4
Calling BuildCouplings_RI UseCCLib=0 DoRISX=0
CI_BuildCouplings NCFG= 4 NORB=4 NEL=2 UseCCLib=0 MaxCore=1024
         PASS 1 completed. NCFG= 4 NCFGK= 10 MaxNSOMOI=0 MaxNSOMOK=2
         PASS 2 completed.
         PASS 3 completed.
         Memory used for RI tree              =    0.00 MB (av. dim=     1)
         Memory used for ONE tree             =    0.00 MB (av. dim=     1)
         Memory used for coupling coefficients=    0.00 MB

                       ****Iteration    0****
   Maximum residual norm  :     0.000000000000

      *** CONVERGENCE OF RESIDUAL NORM REACHED ***
STATE   0 MULT= 1: E=    -14.6167627190 Eh W=  1.0000 DE= 0.000 eV      0.0 cm**-1
      0.90256  : 2000
      0.03248  : 0002
      0.03248  : 0020
   # of selected configurations          ...      4
   # of generator configurations         ...      4 (NEW=1 (CREF=4))
   Performing single and double excitations relative to generators ... done (  0.0 sec)
   # of configurations after S+D         ...     10
   Selecting from the generated configurations  ...    # of configurations after Selection  ...      4
   ==>>> CI space seems to have converged. No new configurations

                    ******************************
                    *  ICECI MACROITERATION   2  *
                    ******************************

   # of active configurations =      4
   # of selected configurations          ...      4
   # of generator configurations         ...      4 (NEW=1 (CREF=4))
   Performing single and double excitations relative to generators ... done (  0.0 sec)
   # of configurations after S+D         ...     10
   Selecting from the generated configurations  ...    # of configurations after Selection  ...      4
   ==>>> CI space seems to have converged. No new configurations
   maximum energy change                ... 0.000e+00 Eh
Calling BuildCouplings_RI UseCCLib=0 DoRISX=0
CI_BuildCouplings NCFG= 4 NORB=4 NEL=2 UseCCLib=0 MaxCore=1024
         PASS 1 completed. NCFG= 4 NCFGK= 10 MaxNSOMOI=0 MaxNSOMOK=2
         PASS 2 completed.
         PASS 3 completed.
         Memory used for RI tree              =    0.00 MB (av. dim=     1)
         Memory used for ONE tree             =    0.00 MB (av. dim=     1)
         Memory used for coupling coefficients=    0.00 MB

                       ****Iteration    0****
   Maximum residual norm  :     0.000000000000

      *** CONVERGENCE OF RESIDUAL NORM REACHED ***
STATE   0 MULT= 1: E=    -14.6167627190 Eh W=  1.0000 DE= 0.000 eV      0.0 cm**-1
      0.90256  : 2000
      0.03248  : 0020
      0.03248  : 0200


FINAL CIPSI ENERGIES
  Final CIPSI Energy Root   0:    -14.616762719 EH
   CI-PROBLEM SOLVED (  0.0 sec)
   DENSITIES MADE
   E(CAS)=   -14.616762719 Eh DE=   -7.673504e-07
   --- Energy gap subspaces: Ext-Act = 0.051   Act-Int = 4.434
   N(occ)=  1.80512 0.06496 0.06496 0.06496
   ||g|| =     1.005938e-02 Max(G)=   -8.565114e-03 Rot=44,1
   --- Orbital Update [     KDIIS]
   --- Density close to convergence (5.980e-05). Approximate active Fock build

MACRO-ITERATION   8: 
   --- Inactive Energy E0 = -13.61009367 Eh
Warning: bug with use of symmetry - not using it

                    ******************************
                    *  ICECI MACROITERATION   1  *
                    ******************************

   # of active configurations =      4
Calling BuildCouplings_RI UseCCLib=0 DoRISX=0
CI_BuildCouplings NCFG= 4 NORB=4 NEL=2 UseCCLib=0 MaxCore=1024
         PASS 1 completed. NCFG= 4 NCFGK= 10 MaxNSOMOI=0 MaxNSOMOK=2
         PASS 2 completed.
         PASS 3 completed.
         Memory used for RI tree              =    0.00 MB (av. dim=     1)
         Memory used for ONE tree             =    0.00 MB (av. dim=     1)
         Memory used for coupling coefficients=    0.00 MB

                       ****Iteration    0****
   Maximum residual norm  :     0.000000000000

      *** CONVERGENCE OF RESIDUAL NORM REACHED ***
STATE   0 MULT= 1: E=    -14.6167648664 Eh W=  1.0000 DE= 0.000 eV      0.0 cm**-1
      0.90257  : 2000
      0.03248  : 0020
      0.03248  : 0002
   # of selected configurations          ...      4
   # of generator configurations         ...      4 (NEW=1 (CREF=4))
   Performing single and double excitations relative to generators ... done (  0.0 sec)
   # of configurations after S+D         ...     10
   Selecting from the generated configurations  ...    # of configurations after Selection  ...      4
   ==>>> CI space seems to have converged. No new configurations

                    ******************************
                    *  ICECI MACROITERATION   2  *
                    ******************************

   # of active configurations =      4
   # of selected configurations          ...      4
   # of generator configurations         ...      4 (NEW=1 (CREF=4))
   Performing single and double excitations relative to generators ... done (  0.0 sec)
   # of configurations after S+D         ...     10
   Selecting from the generated configurations  ...    # of configurations after Selection  ...      4
   ==>>> CI space seems to have converged. No new configurations
   maximum energy change                ... 0.000e+00 Eh
Calling BuildCouplings_RI UseCCLib=0 DoRISX=0
CI_BuildCouplings NCFG= 4 NORB=4 NEL=2 UseCCLib=0 MaxCore=1024
         PASS 1 completed. NCFG= 4 NCFGK= 10 MaxNSOMOI=0 MaxNSOMOK=2
         PASS 2 completed.
         PASS 3 completed.
         Memory used for RI tree              =    0.00 MB (av. dim=     1)
         Memory used for ONE tree             =    0.00 MB (av. dim=     1)
         Memory used for coupling coefficients=    0.00 MB

                       ****Iteration    0****
   Maximum residual norm  :     0.000000000000

      *** CONVERGENCE OF RESIDUAL NORM REACHED ***
STATE   0 MULT= 1: E=    -14.6167648664 Eh W=  1.0000 DE= 0.000 eV      0.0 cm**-1
      0.90257  : 2000
      0.03248  : 0002
      0.03248  : 0200


FINAL CIPSI ENERGIES
  Final CIPSI Energy Root   0:    -14.616764866 EH
   CI-PROBLEM SOLVED (  0.0 sec)
   DENSITIES MADE
   E(CAS)=   -14.616764866 Eh DE=   -2.147401e-06
   --- Energy gap subspaces: Ext-Act = 0.051   Act-Int = 4.434
   N(occ)=  1.80514 0.06495 0.06495 0.06495
   ||g|| =     2.393471e-04 Max(G)=   -1.699136e-04 Rot=5,0
   --- Orbital Update [     KDIIS]
   --- Density close to convergence (2.089e-05). Approximate active Fock build

MACRO-ITERATION   9: 
   --- Inactive Energy E0 = -13.61009525 Eh
Warning: bug with use of symmetry - not using it

                    ******************************
                    *  ICECI MACROITERATION   1  *
                    ******************************

   # of active configurations =      4
Calling BuildCouplings_RI UseCCLib=0 DoRISX=0
CI_BuildCouplings NCFG= 4 NORB=4 NEL=2 UseCCLib=0 MaxCore=1024
         PASS 1 completed. NCFG= 4 NCFGK= 10 MaxNSOMOI=0 MaxNSOMOK=2
         PASS 2 completed.
         PASS 3 completed.
         Memory used for RI tree              =    0.00 MB (av. dim=     1)
         Memory used for ONE tree             =    0.00 MB (av. dim=     1)
         Memory used for coupling coefficients=    0.00 MB

                       ****Iteration    0****
   Maximum residual norm  :     0.000000000000

      *** CONVERGENCE OF RESIDUAL NORM REACHED ***
STATE   0 MULT= 1: E=    -14.6167648665 Eh W=  1.0000 DE= 0.000 eV      0.0 cm**-1
      0.90257  : 2000
      0.03248  : 0200
      0.03248  : 0020
   # of selected configurations          ...      4
   # of generator configurations         ...      4 (NEW=1 (CREF=4))
   Performing single and double excitations relative to generators ... done (  0.0 sec)
   # of configurations after S+D         ...     10
   Selecting from the generated configurations  ...    # of configurations after Selection  ...      4
   ==>>> CI space seems to have converged. No new configurations

                    ******************************
                    *  ICECI MACROITERATION   2  *
                    ******************************

   # of active configurations =      4
   # of selected configurations          ...      4
   # of generator configurations         ...      4 (NEW=1 (CREF=4))
   Performing single and double excitations relative to generators ... done (  0.0 sec)
   # of configurations after S+D         ...     10
   Selecting from the generated configurations  ...    # of configurations after Selection  ...      4
   ==>>> CI space seems to have converged. No new configurations
   maximum energy change                ... 0.000e+00 Eh
Calling BuildCouplings_RI UseCCLib=0 DoRISX=0
CI_BuildCouplings NCFG= 4 NORB=4 NEL=2 UseCCLib=0 MaxCore=1024
         PASS 1 completed. NCFG= 4 NCFGK= 10 MaxNSOMOI=0 MaxNSOMOK=2
         PASS 2 completed.
         PASS 3 completed.
         Memory used for RI tree              =    0.00 MB (av. dim=     1)
         Memory used for ONE tree             =    0.00 MB (av. dim=     1)
         Memory used for coupling coefficients=    0.00 MB

                       ****Iteration    0****
   Maximum residual norm  :     0.000000000000

      *** CONVERGENCE OF RESIDUAL NORM REACHED ***
STATE   0 MULT= 1: E=    -14.6167648665 Eh W=  1.0000 DE= 0.000 eV      0.0 cm**-1
      0.90257  : 2000
      0.03248  : 0200
      0.03248  : 0020


FINAL CIPSI ENERGIES
  Final CIPSI Energy Root   0:    -14.616764866 EH
   CI-PROBLEM SOLVED (  0.0 sec)
   DENSITIES MADE
   E(CAS)=   -14.616764866 Eh DE=   -9.445600e-11
   --- Energy gap subspaces: Ext-Act = 0.051   Act-Int = 4.434
   N(occ)=  1.80514 0.06495 0.06495 0.06495
   ||g|| =     2.441568e-04 Max(G)=    1.669960e-04 Rot=44,1
                     ---- THE CAS-SCF ENERGY   HAS CONVERGED ----
                            --- FINALIZING ORBITALS ---
                    ---- DOING ONE FINAL ITERATION FOR PRINTING ----
   --- Forming Natural Orbitals
   --- Canonicalize Internal Space
   --- Canonicalize External Space

MACRO-ITERATION  10: 
   --- Inactive Energy E0 = -13.61009525 Eh
   --- All densities will be recomputed
Warning: bug with use of symmetry - not using it

                    ******************************
                    *  ICECI MACROITERATION   1  *
                    ******************************

   # of active configurations =      4
Calling BuildCouplings_RI UseCCLib=0 DoRISX=0
CI_BuildCouplings NCFG= 4 NORB=4 NEL=2 UseCCLib=0 MaxCore=1024
         PASS 1 completed. NCFG= 4 NCFGK= 10 MaxNSOMOI=0 MaxNSOMOK=2
         PASS 2 completed.
         PASS 3 completed.
         Memory used for RI tree              =    0.00 MB (av. dim=     1)
         Memory used for ONE tree             =    0.00 MB (av. dim=     1)
         Memory used for coupling coefficients=    0.00 MB

                       ****Iteration    0****
   Maximum residual norm  :     0.000000000000

      *** CONVERGENCE OF RESIDUAL NORM REACHED ***
STATE   0 MULT= 1: E=    -14.6167648665 Eh W=  1.0000 DE= 0.000 eV      0.0 cm**-1
      0.90257  : 2000
      0.03248  : 0020
      0.03248  : 0002
   # of selected configurations          ...      4
   # of generator configurations         ...      4 (NEW=1 (CREF=4))
   Performing single and double excitations relative to generators ... done (  0.0 sec)
   # of configurations after S+D         ...     10
   Selecting from the generated configurations  ...    # of configurations after Selection  ...      4
   ==>>> CI space seems to have converged. No new configurations

                    ******************************
                    *  ICECI MACROITERATION   2  *
                    ******************************

   # of active configurations =      4
   # of selected configurations          ...      4
   # of generator configurations         ...      4 (NEW=1 (CREF=4))
   Performing single and double excitations relative to generators ... done (  0.0 sec)
   # of configurations after S+D         ...     10
   Selecting from the generated configurations  ...    # of configurations after Selection  ...      4
   ==>>> CI space seems to have converged. No new configurations
   maximum energy change                ... 0.000e+00 Eh
Calling BuildCouplings_RI UseCCLib=0 DoRISX=0
CI_BuildCouplings NCFG= 4 NORB=4 NEL=2 UseCCLib=0 MaxCore=1024
         PASS 1 completed. NCFG= 4 NCFGK= 10 MaxNSOMOI=0 MaxNSOMOK=2
         PASS 2 completed.
         PASS 3 completed.
         Memory used for RI tree              =    0.00 MB (av. dim=     1)
         Memory used for ONE tree             =    0.00 MB (av. dim=     1)
         Memory used for coupling coefficients=    0.00 MB

                       ****Iteration    0****
   Maximum residual norm  :     0.000000000000

      *** CONVERGENCE OF RESIDUAL NORM REACHED ***
STATE   0 MULT= 1: E=    -14.6167648665 Eh W=  1.0000 DE= 0.000 eV      0.0 cm**-1
      0.90257  : 2000
      0.03248  : 0020
      0.03248  : 0002


FINAL CIPSI ENERGIES
  Final CIPSI Energy Root   0:    -14.616764866 EH
   CI-PROBLEM SOLVED (  0.0 sec)
   DENSITIES MADE
   E(CAS)=   -14.616764866 Eh DE=    1.598721e-14
   --- Energy gap subspaces: Ext-Act = 0.020   Act-Int = 4.434
   N(occ)=  1.80514 0.06495 0.06495 0.06495
   ||g|| =     1.411360e-04 Max(G)=   -1.410266e-04 Rot=5,0
--------------
CASSCF RESULTS
--------------

Final CASSCF energy       : -14.616764866 Eh    -397.7424 eV

----------------
ORBITAL ENERGIES
----------------

  NO   OCC          E(Eh)            E(eV)    Irrep 
   0   2.0000      -4.711457      -128.2053    1-Ag
   1   1.8051      -0.277692        -7.5564    2-Ag
   2   0.0650       0.115622         3.1462    1-B2u
   3   0.0650       0.115622         3.1462    1-B3u
   4   0.0650       0.115622         3.1462    1-B1u
   5   0.0000       0.135144         3.6774    3-Ag
   6   0.0000       0.147366         4.0100    2-B3u
   7   0.0000       0.147366         4.0100    2-B2u
   8   0.0000       0.147366         4.0100    2-B1u
   9   0.0000       0.496464        13.5095    1-B2g
  10   0.0000       0.496464        13.5095    1-B3g
  11   0.0000       0.496464        13.5095    1-B1g
  12   0.0000       0.496464        13.5095    4-Ag
  13   0.0000       0.496464        13.5095    5-Ag
  14   0.0000       0.691256        18.8100    3-B3u
  15   0.0000       0.691256        18.8100    3-B1u
  16   0.0000       0.691256        18.8100    3-B2u
  17   0.0000       0.741439        20.1756    6-Ag
  18   0.0000       0.943908        25.6850    4-B3u
  19   0.0000       0.943908        25.6850    4-B1u
  20   0.0000       0.943908        25.6850    4-B2u
  21   0.0000       0.943908        25.6850    1-Au
  22   0.0000       0.943908        25.6850    5-B1u
  23   0.0000       0.943908        25.6850    5-B2u
  24   0.0000       0.943908        25.6850    5-B3u
  25   0.0000       1.603844        43.6428    2-B3g
  26   0.0000       1.603844        43.6428    2-B1g
  27   0.0000       1.603844        43.6428    7-Ag
  28   0.0000       1.603844        43.6428    2-B2g
  29   0.0000       1.603844        43.6428    8-Ag
  30   0.0000       2.130686        57.9789    9-Ag
  31   0.0000       2.130686        57.9789   10-Ag
  32   0.0000       2.130686        57.9789    3-B3g
  33   0.0000       2.130686        57.9789    3-B1g
  34   0.0000       2.130686        57.9789    3-B2g
  35   0.0000       2.130686        57.9789   11-Ag
  36   0.0000       2.130686        57.9789    4-B3g
  37   0.0000       2.130686        57.9789    4-B1g
  38   0.0000       2.130686        57.9789    4-B2g
  39   0.0000       2.452152        66.7265    6-B2u
  40   0.0000       2.452152        66.7265    6-B3u
  41   0.0000       2.452152        66.7265    6-B1u
  42   0.0000       2.523587        68.6703    7-B3u
  43   0.0000       2.523587        68.6703    2-Au
  44   0.0000       2.523587        68.6703    7-B2u
  45   0.0000       2.523587        68.6703    7-B1u
  46   0.0000       2.523587        68.6703    8-B3u
  47   0.0000       2.523587        68.6703    8-B1u
  48   0.0000       2.523587        68.6703    8-B2u
  49   0.0000       4.450948       121.1164   12-Ag
  50   0.0000       4.450948       121.1164    5-B3g
  51   0.0000       4.450948       121.1164    5-B2g
  52   0.0000       4.450948       121.1164    5-B1g
  53   0.0000       4.450948       121.1164   13-Ag
  54   0.0000       7.125108       193.8840   14-Ag


---------------------------------------------
CAS-SCF STATES FOR BLOCK  1 MULT= 1 IRREP= Ag NROOTS= 1
---------------------------------------------

STATE   0 MULT= 1: E=    -14.6167648665 Eh W=  1.0000 DE= 0.000 eV      0.0 cm**-1
      0.90257  : 2000
      0.03248  : 0020
      0.03248  : 0002


--------------
DENSITY MATRIX
--------------

                  0          1          2          3    
      0       1.805142   0.000000   0.000000   0.000000
      1       0.000000   0.064953   0.000000   0.000000
      2       0.000000   0.000000   0.064953   0.000000
      3       0.000000   0.000000   0.000000   0.064953
Trace of the electron density:  2.000000

-----------------
ENERGY COMPONENTS
-----------------

One electron energy          :    -19.083226217 Eh        -519.2810 eV
Two electron energy          :      4.466461350 Eh         121.5386 eV
Nuclear repulsion energy     :      0.000000000 Eh           0.0000 eV
                               ----------------
                                  -14.616764866

Kinetic energy               :     14.617143689 Eh         397.7527 eV
Potential energy             :    -29.233908555 Eh        -795.4951 eV
Virial ratio                 :     -1.999974084 
                               ----------------
                                  -14.616764866

Core energy                  :    -13.610095250 Eh     -370.3495 eV


----------------------------
LOEWDIN ORBITAL-COMPOSITIONS
----------------------------

                      0         1         2         3         4         5   
                  -4.71146  -0.27769   0.11562   0.11562   0.11562   0.13514
                   2.00000   1.80514   0.06495   0.06495   0.06495   0.00000
                  --------  --------  --------  --------  --------  --------
 0 Be s             100.0     100.0       0.0       0.0       0.0     100.0
 0 Be pz              0.0       0.0       0.0       0.0     100.0       0.0
 0 Be px              0.0       0.0       0.0     100.0       0.0       0.0
 0 Be py              0.0       0.0     100.0       0.0       0.0       0.0

                      6         7         8         9        10        11   
                   0.14737   0.14737   0.14737   0.49646   0.49646   0.49646
                   0.00000   0.00000   0.00000   0.00000   0.00000   0.00000
                  --------  --------  --------  --------  --------  --------
 0 Be pz              0.0       0.0     100.0       0.0       0.0       0.0
 0 Be px            100.0       0.0       0.0       0.0       0.0       0.0
 0 Be py              0.0     100.0       0.0       0.0       0.0       0.0
 0 Be dxz             0.0       0.0       0.0     100.0       0.0       0.0
 0 Be dyz             0.0       0.0       0.0       0.0     100.0       0.0
 0 Be dxy             0.0       0.0       0.0       0.0       0.0     100.0

                     12        13        14        15        16        17   
                   0.49646   0.49646   0.69126   0.69126   0.69126   0.74144
                   0.00000   0.00000   0.00000   0.00000   0.00000   0.00000
                  --------  --------  --------  --------  --------  --------
 0 Be s               0.0       0.0       0.0       0.0       0.0     100.0
 0 Be pz              0.0       0.0       0.0     100.0       0.0       0.0
 0 Be px              0.0       0.0     100.0       0.0       0.0       0.0
 0 Be py              0.0       0.0       0.0       0.0     100.0       0.0
 0 Be dz2             0.9      99.1       0.0       0.0       0.0       0.0
 0 Be dx2y2          99.1       0.9       0.0       0.0       0.0       0.0

                     18        19        20        21        22        23   
                   0.94391   0.94391   0.94391   0.94391   0.94391   0.94391
                   0.00000   0.00000   0.00000   0.00000   0.00000   0.00000
                  --------  --------  --------  --------  --------  --------
 0 Be f0              0.0      96.3       0.0       0.0       3.7       0.0
 0 Be f+1            35.0       0.0       0.0       0.0       0.0       0.0
 0 Be f-1             0.0       0.0      41.3       0.0       0.0      58.7
 0 Be f+2             0.0       3.7       0.0       0.0      96.3       0.0
 0 Be f-2             0.0       0.0       0.0     100.0       0.0       0.0
 0 Be f+3            65.0       0.0       0.0       0.0       0.0       0.0
 0 Be f-3             0.0       0.0      58.7       0.0       0.0      41.3

                     24        25        26        27        28        29   
                   0.94391   1.60384   1.60384   1.60384   1.60384   1.60384
                   0.00000   0.00000   0.00000   0.00000   0.00000   0.00000
                  --------  --------  --------  --------  --------  --------
 0 Be dz2             0.0       0.0       0.0      49.8       0.0      50.2
 0 Be dxz             0.0       0.0       0.0       0.0     100.0       0.0
 0 Be dyz             0.0     100.0       0.0       0.0       0.0       0.0
 0 Be dx2y2           0.0       0.0       0.0      50.2       0.0      49.8
 0 Be dxy             0.0       0.0     100.0       0.0       0.0       0.0
 0 Be f+1            65.0       0.0       0.0       0.0       0.0       0.0
 0 Be f+3            35.0       0.0       0.0       0.0       0.0       0.0

                     30        31        32        33        34        35   
                   2.13069   2.13069   2.13069   2.13069   2.13069   2.13069
                   0.00000   0.00000   0.00000   0.00000   0.00000   0.00000
                  --------  --------  --------  --------  --------  --------
 0 Be g0             90.6       0.5       0.0       0.0       0.0       8.9
 0 Be g+1             0.0       0.0       0.0       0.0      14.0       0.0
 0 Be g-1             0.0       0.0       0.1       0.0       0.0       0.0
 0 Be g+2             7.8       4.0       0.0       0.0       0.0      88.2
 0 Be g-2             0.0       0.0       0.0      84.4       0.0       0.0
 0 Be g+3             0.0       0.0       0.0       0.0      86.0       0.0
 0 Be g-3             0.0       0.0      99.9       0.0       0.0       0.0
 0 Be g+4             1.6      95.5       0.0       0.0       0.0       2.9
 0 Be g-4             0.0       0.0       0.0      15.6       0.0       0.0

                     36        37        38        39        40        41   
                   2.13069   2.13069   2.13069   2.45215   2.45215   2.45215
                   0.00000   0.00000   0.00000   0.00000   0.00000   0.00000
                  --------  --------  --------  --------  --------  --------
 0 Be pz              0.0       0.0       0.0       0.0       0.0     100.0
 0 Be px              0.0       0.0       0.0       0.0     100.0       0.0
 0 Be py              0.0       0.0       0.0     100.0       0.0       0.0
 0 Be g+1             0.0       0.0      86.0       0.0       0.0       0.0
 0 Be g-1            99.9       0.0       0.0       0.0       0.0       0.0
 0 Be g-2             0.0      15.6       0.0       0.0       0.0       0.0
 0 Be g+3             0.0       0.0      14.0       0.0       0.0       0.0
 0 Be g-3             0.1       0.0       0.0       0.0       0.0       0.0
 0 Be g-4             0.0      84.4       0.0       0.0       0.0       0.0

                     42        43        44        45        46        47   
                   2.52359   2.52359   2.52359   2.52359   2.52359   2.52359
                   0.00000   0.00000   0.00000   0.00000   0.00000   0.00000
                  --------  --------  --------  --------  --------  --------
 0 Be f0              0.0       0.0       0.0      96.8       0.0       3.2
 0 Be f+1            41.3       0.0       0.0       0.0      58.7       0.0
 0 Be f-1             0.0       0.0      51.6       0.0       0.0       0.0
 0 Be f+2             0.0       0.0       0.0       3.2       0.0      96.8
 0 Be f-2             0.0     100.0       0.0       0.0       0.0       0.0
 0 Be f+3            58.7       0.0       0.0       0.0      41.3       0.0
 0 Be f-3             0.0       0.0      48.4       0.0       0.0       0.0

                     48        49        50        51        52        53   
                   2.52359   4.45095   4.45095   4.45095   4.45095   4.45095
                   0.00000   0.00000   0.00000   0.00000   0.00000   0.00000
                  --------  --------  --------  --------  --------  --------
 0 Be dz2             0.0       5.6       0.0       0.0       0.0      94.4
 0 Be dxz             0.0       0.0       0.0     100.0       0.0       0.0
 0 Be dyz             0.0       0.0     100.0       0.0       0.0       0.0
 0 Be dx2y2           0.0      94.4       0.0       0.0       0.0       5.6
 0 Be dxy             0.0       0.0       0.0       0.0     100.0       0.0
 0 Be f-1            48.4       0.0       0.0       0.0       0.0       0.0
 0 Be f-3            51.6       0.0       0.0       0.0       0.0       0.0

                     54   
                   7.12511
                   0.00000
                  --------
 0 Be s             100.0

----------------------------
LOEWDIN REDUCED ACTIVE MOs  
----------------------------

                      0         1         2         3         4         5   
                  -4.71146  -0.27769   0.11562   0.11562   0.11562   0.13514
                   2.00000   1.80514   0.06495   0.06495   0.06495   0.00000
                  --------  --------  --------  --------  --------  --------
 0 Be s             100.0     100.0       0.0       0.0       0.0     100.0
 0 Be pz              0.0       0.0       0.0       0.0     100.0       0.0
 0 Be px              0.0       0.0       0.0     100.0       0.0       0.0
 0 Be py              0.0       0.0     100.0       0.0       0.0       0.0

------------------------------------------------------------------------------
                           ORCA POPULATION ANALYSIS
------------------------------------------------------------------------------
Input electron density              ... casscf.scfp
BaseName (.gbw .S,...)              ... casscf

                    ********************************
                    * MULLIKEN POPULATION ANALYSIS *
                    ********************************

-----------------------
MULLIKEN ATOMIC CHARGES
-----------------------
   0 Be:   -0.000000
Sum of atomic charges:   -0.0000000

--------------------------------
MULLIKEN REDUCED ORBITAL CHARGES
--------------------------------
  0 Bes       :     3.805142  s :     3.805142
      pz      :     0.064953  p :     0.194858
      px      :     0.064953
      py      :     0.064953
      dz2     :     0.000000  d :     0.000000
      dxz     :     0.000000
      dyz     :     0.000000
      dx2y2   :     0.000000
      dxy     :     0.000000
      f0      :     0.000000  f :     0.000000
      f+1     :     0.000000
      f-1     :     0.000000
      f+2     :     0.000000
      f-2     :     0.000000
      f+3     :     0.000000
      f-3     :     0.000000
      g0      :     0.000000  g :     0.000000
      g+1     :     0.000000
      g-1     :     0.000000
      g+2     :     0.000000
      g-2     :     0.000000
      g+3     :     0.000000
      g-3     :     0.000000
[...]
                   0.00000   0.00000   0.00000   0.00000   0.00000   0.00000
                  --------  --------  --------  --------  --------  --------
 0 Be pz              0.0       0.0     100.0       0.0       0.0       0.0
 0 Be px            100.0       0.0       0.0       0.0       0.0       0.0
 0 Be py              0.0     100.0       0.0       0.0       0.0       0.0
 0 Be dxz             0.0       0.0       0.0     100.0       0.0       0.0
 0 Be dyz             0.0       0.0       0.0       0.0     100.0       0.0
 0 Be dxy             0.0       0.0       0.0       0.0       0.0     100.0

                     12        13        14        15        16        17   
                   0.49646   0.49646   0.69126   0.69126   0.69126   0.74144
                   0.00000   0.00000   0.00000   0.00000   0.00000   0.00000
                  --------  --------  --------  --------  --------  --------
 0 Be s               0.0       0.0       0.0       0.0       0.0     100.0
 0 Be pz              0.0       0.0       0.0     100.0       0.0       0.0
 0 Be px              0.0       0.0     100.0       0.0       0.0       0.0
 0 Be py              0.0       0.0       0.0       0.0     100.0       0.0
 0 Be dz2             0.9      99.1       0.0       0.0       0.0       0.0
 0 Be dx2y2          99.1       0.9       0.0       0.0       0.0       0.0

                     18        19        20        21        22        23   
                   0.94391   0.94391   0.94391   0.94391   0.94391   0.94391
                   0.00000   0.00000   0.00000   0.00000   0.00000   0.00000
                  --------  --------  --------  --------  --------  --------
 0 Be f0              0.0      96.3       0.0       0.0       3.7       0.0
 0 Be f+1            35.0       0.0       0.0       0.0       0.0       0.0
 0 Be f-1             0.0       0.0      41.3       0.0       0.0      58.7
 0 Be f+2             0.0       3.7       0.0       0.0      96.3       0.0
 0 Be f-2             0.0       0.0       0.0     100.0       0.0       0.0
 0 Be f+3            65.0       0.0       0.0       0.0       0.0       0.0
 0 Be f-3             0.0       0.0      58.7       0.0       0.0      41.3

                     24        25        26        27        28        29   
                   0.94391   1.60384   1.60384   1.60384   1.60384   1.60384
                   0.00000   0.00000   0.00000   0.00000   0.00000   0.00000
                  --------  --------  --------  --------  --------  --------
 0 Be dz2             0.0       0.0       0.0      49.8       0.0      50.2
 0 Be dxz             0.0       0.0       0.0       0.0     100.0       0.0
 0 Be dyz             0.0     100.0       0.0       0.0       0.0       0.0
 0 Be dx2y2           0.0       0.0       0.0      50.2       0.0      49.8
 0 Be dxy             0.0       0.0     100.0       0.0       0.0       0.0
 0 Be f+1            65.0       0.0       0.0       0.0       0.0       0.0
 0 Be f+3            35.0       0.0       0.0       0.0       0.0       0.0

                     30        31        32        33        34        35   
                   2.13069   2.13069   2.13069   2.13069   2.13069   2.13069
                   0.00000   0.00000   0.00000   0.00000   0.00000   0.00000
                  --------  --------  --------  --------  --------  --------
 0 Be g0             90.6       0.5       0.0       0.0       0.0       8.9
 0 Be g+1             0.0       0.0       0.0       0.0      14.0       0.0
 0 Be g-1             0.0       0.0       0.1       0.0       0.0       0.0
 0 Be g+2             7.8       4.0       0.0       0.0       0.0      88.2
 0 Be g-2             0.0       0.0       0.0      84.4       0.0       0.0
 0 Be g+3             0.0       0.0       0.0       0.0      86.0       0.0
 0 Be g-3             0.0       0.0      99.9       0.0       0.0       0.0
 0 Be g+4             1.6      95.5       0.0       0.0       0.0       2.9
 0 Be g-4             0.0       0.0       0.0      15.6       0.0       0.0

                     36        37        38        39        40        41   
                   2.13069   2.13069   2.13069   2.45215   2.45215   2.45215
                   0.00000   0.00000   0.00000   0.00000   0.00000   0.00000
                  --------  --------  --------  --------  --------  --------
 0 Be pz              0.0       0.0       0.0       0.0       0.0     100.0
 0 Be px              0.0       0.0       0.0       0.0     100.0       0.0
 0 Be py              0.0       0.0       0.0     100.0       0.0       0.0
 0 Be g+1             0.0       0.0      86.0       0.0       0.0       0.0
 0 Be g-1            99.9       0.0       0.0       0.0       0.0       0.0
 0 Be g-2             0.0      15.6       0.0       0.0       0.0       0.0
 0 Be g+3             0.0       0.0      14.0       0.0       0.0       0.0
 0 Be g-3             0.1       0.0       0.0       0.0       0.0       0.0
 0 Be g-4             0.0      84.4       0.0       0.0       0.0       0.0

                     42        43        44        45        46        47   
                   2.52359   2.52359   2.52359   2.52359   2.52359   2.52359
                   0.00000   0.00000   0.00000   0.00000   0.00000   0.00000
                  --------  --------  --------  --------  --------  --------
 0 Be f0              0.0       0.0       0.0      96.8       0.0       3.2
 0 Be f+1            41.3       0.0       0.0       0.0      58.7       0.0
 0 Be f-1             0.0       0.0      51.6       0.0       0.0       0.0
 0 Be f+2             0.0       0.0       0.0       3.2       0.0      96.8
 0 Be f-2             0.0     100.0       0.0       0.0       0.0       0.0
 0 Be f+3            58.7       0.0       0.0       0.0      41.3       0.0
 0 Be f-3             0.0       0.0      48.4       0.0       0.0       0.0

                     48        49        50        51        52        53   
                   2.52359   4.45095   4.45095   4.45095   4.45095   4.45095
                   0.00000   0.00000   0.00000   0.00000   0.00000   0.00000
                  --------  --------  --------  --------  --------  --------
 0 Be dz2             0.0       5.6       0.0       0.0       0.0      94.4
 0 Be dxz             0.0       0.0       0.0     100.0       0.0       0.0
 0 Be dyz             0.0       0.0     100.0       0.0       0.0       0.0
 0 Be dx2y2           0.0      94.4       0.0       0.0       0.0       5.6
 0 Be dxy             0.0       0.0       0.0       0.0     100.0       0.0
 0 Be f-1            48.4       0.0       0.0       0.0       0.0       0.0
 0 Be f-3            51.6       0.0       0.0       0.0       0.0       0.0

                     54   
                   7.12511
                   0.00000
                  --------
 0 Be s             100.0

----------------------------
LOEWDIN REDUCED ACTIVE MOs  
----------------------------

                      0         1         2         3         4         5   
                  -4.71146  -0.27769   0.11562   0.11562   0.11562   0.13514
                   2.00000   1.80514   0.06495   0.06495   0.06495   0.00000
                  --------  --------  --------  --------  --------  --------
 0 Be s             100.0     100.0       0.0       0.0       0.0     100.0
 0 Be pz              0.0       0.0       0.0       0.0     100.0       0.0
 0 Be px              0.0       0.0       0.0     100.0       0.0       0.0
 0 Be py              0.0       0.0     100.0       0.0       0.0       0.0

------------------------------------------------------------------------------
                           ORCA POPULATION ANALYSIS
------------------------------------------------------------------------------
Input electron density              ... casscf_job3.scfp
BaseName (.gbw .S,...)              ... casscf_job3

                    ********************************
                    * MULLIKEN POPULATION ANALYSIS *
                    ********************************

-----------------------
MULLIKEN ATOMIC CHARGES
-----------------------
   0 Be:   -0.000000
Sum of atomic charges:   -0.0000000

--------------------------------
MULLIKEN REDUCED ORBITAL CHARGES
--------------------------------
  0 Bes       :     3.805142  s :     3.805142
      pz      :     0.064953  p :     0.194858
      px      :     0.064953
      py      :     0.064953
      dz2     :     0.000000  d :     0.000000
      dxz     :     0.000000
      dyz     :     0.000000
      dx2y2   :     0.000000
      dxy     :     0.000000
      f0      :     0.000000  f :     0.000000
      f+1     :     0.000000
      f-1     :     0.000000
      f+2     :     0.000000
      f-2     :     0.000000
      f+3     :     0.000000
      f-3     :     0.000000
      g0      :     0.000000  g :     0.000000
      g+1     :     0.000000
      g-1     :     0.000000
      g+2     :     0.000000
      g-2     :     0.000000
      g+3     :     0.000000
      g-3     :     0.000000
      g+4     :     0.000000
      g-4     :     0.000000


                     *******************************
                     * LOEWDIN POPULATION ANALYSIS *
                     *******************************

----------------------
LOEWDIN ATOMIC CHARGES
----------------------
   0 Be:    0.000000

-------------------------------
LOEWDIN REDUCED ORBITAL CHARGES
-------------------------------
  0 Bes       :     3.805142  s :     3.805142
      pz      :     0.064953  p :     0.194858
      px      :     0.064953
      py      :     0.064953
      dz2     :     0.000000  d :     0.000000
      dxz     :     0.000000
      dyz     :     0.000000
      dx2y2   :     0.000000
      dxy     :     0.000000
      f0      :     0.000000  f :     0.000000
      f+1     :     0.000000
      f-1     :     0.000000
      f+2     :     0.000000
      f-2     :     0.000000
      f+3     :     0.000000
      f-3     :     0.000000
      g0      :     0.000000  g :     0.000000
      g+1     :     0.000000
      g-1     :     0.000000
      g+2     :     0.000000
      g-2     :     0.000000
      g+3     :     0.000000
      g-3     :     0.000000
      g+4     :     0.000000
      g-4     :     0.000000


                      *****************************
                      * MAYER POPULATION ANALYSIS *
                      *****************************

  NA   - Mulliken gross atomic population
  ZA   - Total nuclear charge
  QA   - Mulliken gross atomic charge
  VA   - Mayer's total valence
  BVA  - Mayer's bonded valence
  FA   - Mayer's free valence

  ATOM       NA         ZA         QA         VA         BVA        FA
  0 Be     4.0000     4.0000    -0.0000     0.7288     0.0000     0.7288




------------------------------------------
 Active MOs in an orthogonalized AO basis 
------------------------------------------

 Active MO  1   
 Energy     -0.27769160 
 Occupation 1.805142 
-----------------------------
  0 Be s        -0.66868470
  0 Be s        -0.54421794
  0 Be s        -0.48876890
  0 Be s        0.09712682
  0 Be s        -0.09142729

 Active MO  2   
 Energy     0.11562194 
 Occupation 0.064953 
-----------------------------
  0 Be py       0.64983843
  0 Be py       0.62145493
  0 Be py       0.32940971
  0 Be py       0.28808510

 Active MO  3   
 Energy     0.11562194 
 Occupation 0.064953 
-----------------------------
  0 Be px       -0.64983843
  0 Be px       -0.62145493
  0 Be px       -0.32940971
  0 Be px       -0.28808510

 Active MO  4   
 Energy     0.11562194 
 Occupation 0.064953 
-----------------------------
  0 Be pz       0.64983843
  0 Be pz       0.62145493
  0 Be pz       0.32940971
  0 Be pz       0.28808510

Transition Dipole Moments (a.u.) with input orbitals:
MO   0:
 MO   2:      0.090736800 (    -0.000000000,      0.090736800,      0.000000000)
 MO   3:      0.090736800 (    -0.090736800,     -0.000000000,      0.000000000)
 MO   4:      0.090736800 (    -0.000000000,      0.000000000,      0.090736800)
MO   1:
 MO   2:      1.460349097 (     0.000000000,     -1.460349097,     -0.000000000)
 MO   3:      1.460349097 (     1.460349097,      0.000000000,     -0.000000000)
 MO   4:      1.460349097 (     0.000000000,     -0.000000000,     -1.460349097)
MO   2:
MO   3:
MO   4:
  newgto Be
  0 21
    1      14630.000000000000         0.000091966609
    2       2191.000000000000         0.000712741220
    3        498.200000000000         0.003733644399
    4        140.900000000000         0.015462385960
    5         45.860000000000         0.052854809622
    6         16.470000000000         0.145641121024
    7          6.319000000000         0.302571143305
    8          2.535000000000         0.404789030316
    9          1.035000000000         0.222306285648
   10      14630.000000000000         0.000000222913
   11       2191.000000000000         0.000001704629
   12        498.200000000000         0.000008903408
   13        140.900000000000         0.000037462498
   14         45.860000000000         0.000128673255
   15         16.470000000000         0.000375136365
   16          6.319000000000         0.000836054901
   17          2.535000000000         0.001537194983
   18          1.035000000000         0.001589264838
   19          0.252800000000         0.010303206449
   20          0.105200000000        -0.012906283361
   21          0.042610000000        -0.001610894567
  0 21
    1      14630.000000000000        -0.000001503323
    2       2191.000000000000        -0.000011650752
    3        498.200000000000        -0.000061031637
    4        140.900000000000        -0.000252754314
    5         45.860000000000        -0.000863985750
    6         16.470000000000        -0.002380707718
    7          6.319000000000        -0.004945948309
    8          2.535000000000        -0.006616842565
    9          1.035000000000        -0.003633907006
   10      14630.000000000000         0.000017666718
   11       2191.000000000000         0.000135098435
   12        498.200000000000         0.000705629519
   13        140.900000000000         0.002969047916
   14         45.860000000000         0.010197853414
   15         16.470000000000         0.029731008695
   16          6.319000000000         0.066260586333
   17          2.535000000000         0.121828651135
   18          1.035000000000         0.125955388719
   19          0.252800000000        -0.259938741257
   20          0.105200000000        -0.633708565257
   21          0.042610000000        -0.230451243232
  1 6
    1         14.030000000000         0.003557605195
    2          3.168000000000         0.022241324892
    3          0.902400000000         0.090062350791
    4          0.303600000000         0.421728439598
    5          0.113000000000         0.546499740443
    6          0.042860000000         0.064362540201
  end

-------------------------------------------------------------
 Forming the transition density       ... done in 0.000116 sec
-------------------------------------------------------------



==========================================
CASSCF UV, CD spectra and dipole moments
==========================================
-------------------
ABSORPTION SPECTRUM
-------------------

Center of mass           = (  0.0000,  0.0000,  0.0000)
Nuclear contribution to the dipole moment =     0.000000,    0.000000,    0.000000 au

Calculating the Dipole integrals                  ... done
Transforming integrals                            ... done
Calculating the Linear Momentum integrals         ... done
Transforming integrals                            ... done
Calculating the Angular Momentum integrals        ... done
Transforming integrals                            ... done

------------------------------------------------------------------------------
                                 DIPOLE MOMENTS
------------------------------------------------------------------------------
  Root  Block           TX        TY        TZ           |T|
                      (Debye)   (Debye)   (Debye)      (Debye)
------------------------------------------------------------------------------
    0    0           -0.00000  -0.00000   0.00000      0.00000

--------------
CASSCF TIMINGS
--------------

Total time                       ...        0.3 sec
Sum of individual times          ...        0.1 sec ( 23.1%)

Calculation of AO operators
   F(Core) operator              ...        0.0 sec (  2.0%)
   G(Act) operator               ...        0.0 sec (  2.8%)
   J(AO) operators               ...        0.0 sec (  0.0%)
Calculation of MO transformed quantities
   J(MO) operators               ...        0.1 sec ( 17.8%)
   (pq|rs) integrals             ...        0.0 sec (  0.0%)
   AO->MO one electron integrals ...        0.0 sec (  0.0%)
Configuration interaction steps
   CI-setup phase                ...        0.0 sec (  0.1%)
   CI-solution phase             ...        0.0 sec (  0.3%)
   Generation of densities       ...        0.0 sec (  0.0%)
Orbital improvement steps
   Orbital gradient              ...        0.0 sec (  0.0%)
Properties                       ...        0.0 sec (  0.0%)
   SOC integral calculation      ...        0.0 sec (  0.0%)
   SSC RMEs (incl. integrals)    ...        0.0 sec (  0.0%)
   SOC RMEs                      ...        0.0 sec (  0.0%)

Maximum memory used throughout the entire CASSCF-calculation: 140.4 MB

-------------------------   --------------------
FINAL SINGLE POINT ENERGY       -14.616764866497
-------------------------   --------------------


                            ***************************************
                            *     ORCA property calculations      *
                            ***************************************

                                    ---------------------
                                    Active property flags
                                    ---------------------
   (+) Dipole Moment


------------------------------------------------------------------------------
                       ORCA ELECTRIC PROPERTIES CALCULATION
------------------------------------------------------------------------------

Dipole Moment Calculation                       ... on
Quadrupole Moment Calculation                   ... off
Polarizability Calculation                      ... off
GBWName                                         ... casscf_job3.gbw
Electron density                                ... casscf_job3.scfp
The origin for moment calculation is the CENTER OF MASS  = ( 0.000000,  0.000000  0.000000)

-------------
DIPOLE MOMENT
-------------
                                X             Y             Z
Electronic contribution:     -0.00000      -0.00000       0.00000
Nuclear contribution   :      0.00000       0.00000       0.00000
                        -----------------------------------------
Total Dipole Moment    :     -0.00000      -0.00000       0.00000
                        -----------------------------------------
Magnitude (a.u.)       :      0.00000
Magnitude (Debye)      :      0.00000



--------------------
Rotational spectrum 
--------------------
 
Rotational constants in cm-1:     0.000000     0.000000     0.000000 
Rotational constants in MHz :     0.000000     0.000000     0.000000 

 Dipole components along the rotational axes: 
x,y,z [a.u.] :    -0.000000    -0.000000     0.000000 
x,y,z [Debye]:    -0.000000    -0.000000     0.000000 

 

Timings for individual modules:

Sum of individual times         ...        4.935 sec (=   0.082 min)
GTO integral calculation        ...        0.584 sec (=   0.010 min)  11.8 %
SCF iterations                  ...        0.491 sec (=   0.008 min)  10.0 %
CASSCF iterations               ...        3.859 sec (=   0.064 min)  78.2 %



                             ****ORCA TERMINATED NORMALLY****
TOTAL RUN TIME: 0 days 0 hours 0 minutes 16 seconds 922 msec
