
                                 *****************
                                 * O   R   C   A *
                                 *****************

                                            #,                                       
                                            ###                                      
                                            ####                                     
                                            #####                                    
                                            ######                                   
                                           ########,                                 
                                     ,,################,,,,,                         
                               ,,#################################,,                 
                          ,,##########################################,,             
                       ,#########################################, ''#####,          
                    ,#############################################,,   '####,        
                  ,##################################################,,,,####,       
                ,###########''''           ''''###############################       
              ,#####''   ,,,,##########,,,,          '''####'''          '####       
            ,##' ,,,,###########################,,,                        '##       
           ' ,,###''''                  '''############,,,                           
         ,,##''                                '''############,,,,        ,,,,,,###''
      ,#''                                            '''#######################'''  
     '                                                          ''''####''''         
             ,#######,   #######,   ,#######,      ##                                
            ,#'     '#,  ##    ##  ,#'     '#,    #''#        ######   ,####,        
            ##       ##  ##   ,#'  ##            #'  '#       #        #'  '#        
            ##       ##  #######   ##           ,######,      #####,   #    #        
            '#,     ,#'  ##    ##  '#,     ,#' ,#      #,         ##   #,  ,#        
             '#######'   ##     ##  '#######'  #'      '#     #####' # '####'        



                  #######################################################
                  #                        -***-                        #
                  #          Department of theory and spectroscopy      #
                  #    Directorship and core code : Frank Neese         #
                  #        Max Planck Institute fuer Kohlenforschung    #
                  #                Kaiser Wilhelm Platz 1               #
                  #                 D-45470 Muelheim/Ruhr               #
                  #                      Germany                        #
                  #                                                     #
                  #                  All rights reserved                #
                  #                        -***-                        #
                  #######################################################


                         Program Version 5.0.3 -  RELEASE  -


 With contributions from (in alphabetic order):
   Daniel Aravena         : Magnetic Suceptibility
   Michael Atanasov       : Ab Initio Ligand Field Theory (pilot matlab implementation)
   Alexander A. Auer      : GIAO ZORA, VPT2 properties, NMR spectrum
   Ute Becker             : Parallelization
   Giovanni Bistoni       : ED, misc. LED, open-shell LED, HFLD
   Martin Brehm           : Molecular dynamics
   Dmytro Bykov           : SCF Hessian
   Vijay G. Chilkuri      : MRCI spin determinant printing, contributions to CSF-ICE
   Dipayan Datta          : RHF DLPNO-CCSD density
   Achintya Kumar Dutta   : EOM-CC, STEOM-CC
   Dmitry Ganyushin       : Spin-Orbit,Spin-Spin,Magnetic field MRCI
   Miquel Garcia          : C-PCM and meta-GGA Hessian, CC/C-PCM, Gaussian charge scheme
   Yang Guo               : DLPNO-NEVPT2, F12-NEVPT2, CIM, IAO-localization
   Andreas Hansen         : Spin unrestricted coupled pair/coupled cluster methods
   Benjamin Helmich-Paris : MC-RPA, TRAH-SCF, COSX integrals
   Lee Huntington         : MR-EOM, pCC
   Robert Izsak           : Overlap fitted RIJCOSX, COSX-SCS-MP3, EOM
   Marcus Kettner         : VPT2
   Christian Kollmar      : KDIIS, OOCD, Brueckner-CCSD(T), CCSD density, CASPT2, CASPT2-K
   Simone Kossmann        : Meta GGA functionals, TD-DFT gradient, OOMP2, MP2 Hessian
   Martin Krupicka        : Initial AUTO-CI
   Lucas Lang             : DCDCAS
   Marvin Lechner         : AUTO-CI (C++ implementation), FIC-MRCC
   Dagmar Lenk            : GEPOL surface, SMD
   Dimitrios Liakos       : Extrapolation schemes; Compound Job, initial MDCI parallelization
   Dimitrios Manganas     : Further ROCIS development; embedding schemes
   Dimitrios Pantazis     : SARC Basis sets
   Anastasios Papadopoulos: AUTO-CI, single reference methods and gradients
   Taras Petrenko         : DFT Hessian,TD-DFT gradient, ASA, ECA, R-Raman, ABS, FL, XAS/XES, NRVS
   Peter Pinski           : DLPNO-MP2, DLPNO-MP2 Gradient
   Christoph Reimann      : Effective Core Potentials
   Marius Retegan         : Local ZFS, SOC
   Christoph Riplinger    : Optimizer, TS searches, QM/MM, DLPNO-CCSD(T), (RO)-DLPNO pert. Triples
   Tobias Risthaus        : Range-separated hybrids, TD-DFT gradient, RPA, STAB
   Michael Roemelt        : Original ROCIS implementation
   Masaaki Saitow         : Open-shell DLPNO-CCSD energy and density
   Barbara Sandhoefer     : DKH picture change effects
   Avijit Sen             : IP-ROCIS
   Kantharuban Sivalingam : CASSCF convergence, NEVPT2, FIC-MRCI
   Bernardo de Souza      : ESD, SOC TD-DFT
   Georgi Stoychev        : AutoAux, RI-MP2 NMR, DLPNO-MP2 response
   Willem Van den Heuvel  : Paramagnetic NMR
   Boris Wezisla          : Elementary symmetry handling
   Frank Wennmohs         : Technical directorship


 We gratefully acknowledge several colleagues who have allowed us to
 interface, adapt or use parts of their codes:
   Stefan Grimme, W. Hujo, H. Kruse, P. Pracht,  : VdW corrections, initial TS optimization,
                  C. Bannwarth, S. Ehlert          DFT functionals, gCP, sTDA/sTD-DF
   Ed Valeev, F. Pavosevic, A. Kumar             : LibInt (2-el integral package), F12 methods
   Garnet Chan, S. Sharma, J. Yang, R. Olivares  : DMRG
   Ulf Ekstrom                                   : XCFun DFT Library
   Mihaly Kallay                                 : mrcc  (arbitrary order and MRCC methods)
   Jiri Pittner, Ondrej Demel                    : Mk-CCSD
   Frank Weinhold                                : gennbo (NPA and NBO analysis)
   Christopher J. Cramer and Donald G. Truhlar   : smd solvation model
   Lars Goerigk                                  : TD-DFT with DH, B97 family of functionals
   V. Asgeirsson, H. Jonsson                     : NEB implementation
   FAccTs GmbH                                   : IRC, NEB, NEB-TS, DLPNO-Multilevel, CI-OPT
                                                   MM, QMMM, 2- and 3-layer-ONIOM, Crystal-QMMM,
                                                   LR-CPCM, SF, NACMEs, symmetry and pop. for TD-DFT,
                                                   nearIR, NL-DFT gradient (VV10), updates on ESD,
                                                   ML-optimized integration grids
   S Lehtola, MJT Oliveira, MAL Marques          : LibXC Library
   Liviu Ungur et al                             : ANISO software


 Your calculation uses the libint2 library for the computation of 2-el integrals
 For citations please refer to: http://libint.valeyev.net

 Your ORCA version has been built with support for libXC version: 5.1.0
 For citations please refer to: https://tddft.org/programs/libxc/

 This ORCA versions uses:
   CBLAS   interface :  Fast vector & matrix operations
   LAPACKE interface :  Fast linear algebra routines
   SCALAPACK package :  Parallel linear algebra routines
   Shared memory     :  Shared parallel matrices
   BLAS/LAPACK       :  OpenBLAS 0.3.15  USE64BITINT DYNAMIC_ARCH NO_AFFINITY Haswell SINGLE_THREADED
        Core in use  :  Haswell
   Copyright (c) 2011-2014, The OpenBLAS Project


Reading of a custom orbital basis requested
Basis file: ../../../../basis/aug-cc-pVQZ-CDF.bas
READING GTO-BASIS: HYDROGEN
READING GTO-BASIS: BORON
READING GTO-BASIS: CARBON
READING GTO-BASIS: NITROGEN
READING GTO-BASIS: OXYGEN
READING GTO-BASIS: FLUORINE
READING GTO-BASIS: NEON
Basis read successfully!



***************************************
The coordinates will be read from file: ../../../../../chem_database/C.xyz
***************************************


================================================================================

----- Orbital basis set information -----
Basis read from file: ../../../../basis/aug-cc-pVQZ-CDF.bas

================================================================================
                                        WARNINGS
                       Please study these warnings very carefully!
================================================================================


WARNING: your system is open-shell and RHF/RKS was chosen
  ===> : WILL SWITCH to UHF/UKS


INFO   : the flag for use of the SHARK integral package has been found!

================================================================================
                                       INPUT FILE
================================================================================
NAME = mol.inp
|  1> # ================================================================
|  2> # Orca input file
|  3> # ================================================================
|  4> ! HF cc-pVDZ VeryTightSCF UseSym
|  5> ! PAL4
|  6> 
|  7> %scf
|  8>   Guess = HCore
|  9> end
| 10> 
| 11> %basis
| 12> GTOName = "../../../../basis/aug-cc-pVQZ-CDF.bas";
| 13> newecp C
| 14>  N_core 2
| 15>  lmax d
| 16>  d 8
| 17>   1            9.16391007           4.00000000    1
| 18>   2            6.93961167   -23808409.93557958    2
| 19>   3            7.30345052    23808400.41277825    2
| 20>   4            9.40487550    15021454.96266359    3
| 21>   5            9.40488553   -15021418.30702333    3
| 22>   6            6.94987573     2903506.66448565    4
| 23>   7            7.19701666     5883449.30843037    4
| 24>   8            6.68591615     -124600.88531194    4
| 25>  s 8
| 26>   1            9.20496634      -84466.95438176    2
| 27>   2            7.60491528       84477.16402905    2
| 28>   3            6.89065612      -73994.93581224    3
| 29>   4            6.60718193      157874.76063805    3
| 30>   5            6.35620954      -83879.82482581    3
| 31>   6            8.52108163     -122787.13470504    4
| 32>   7            6.39638311      123375.26458669    4
| 33>   8            6.48392967     -135661.92655481    4
| 34>  p 8
| 35>   1            8.24850085         -46.83123121    2
| 36>   2            2.93545107          44.20898991    2
| 37>   3            6.26519562         425.76478447    3
| 38>   4            9.42768730        -143.80619922    3
| 39>   5            3.82208514        -281.95858526    3
| 40>   6            5.08043103        1217.54050156    4
| 41>   7            5.78626174       -1451.66890059    4
| 42>   8          119.65596968         -22.38572474    4
| 43> end
| 44> 
| 45> end
| 46> 
| 47> * xyzfile 0 3 ../../../../../chem_database/C.xyz
| 48> 
| 49>                          ****END OF INPUT****
================================================================================

------------------------------------------------------------------------------
                            SYMMETRY HANDLING SETUP
------------------------------------------------------------------------------

------------------
SYMMETRY DETECTION
------------------
The point group will now be determined using a tolerance of 1.0000e-04.
The Z matrix contains a single non-dummy atom.
No further testing needed for point group Kh.
This point group has been found:    Kh
Largest non-degenerate subgroup:    D2h


Symmetry-perfected Cartesians (point groups Kh and D2h):

Atom          Symmetry-perfected Cartesians (x, y, z; au)
  0       0.000000000000    0.000000000000    0.000000000000


-----------------------------------------------
SYMMETRY-PERFECTED CARTESIAN COORDINATES (A.U.)
-----------------------------------------------
Warning (ORCA_SYM): Coordinates were not cleaned so far!

------------------
SYMMETRY REDUCTION
------------------
ORCA supports only abelian point groups.
It is now checked, if the determined point group is supported:
Point Group ( D2h   ) is          ... supported

(Re)building abelian point group:
Creating Character Table          ... done
Making direct product table       ... done
Constructing symmetry operations  ... done
Creating atom transfer table      ... done
Creating asymmetric unit          ... done

----------------------
ASYMMETRIC UNIT IN D2h
----------------------
  #  AT     MASS              COORDS (A.U.)             BAS
   0 C   12.0110   0.00000000   0.00000000   0.00000000   0

----------------------
SYMMETRY ADAPTED BASIS
----------------------
The coefficients for the symmetry adapted linear combinations (SALCS)
of basis functions will now be computed:
Number of basis functions         ...    79
Preparing memory                  ... done
Constructing Gamma(red)           ... done
Reducing Gamma(red)               ... done
Constructing SALCs                ... done
Checking SALC integrity           ... nothing suspicious
Normalizing SALCs                 ... done

Storing the symmetry object:
Symmetry file                     ... mol.sym.tmp
Writing symmetry information      ... done

                       ****************************
                       * Single Point Calculation *
                       ****************************

---------------------------------
CARTESIAN COORDINATES (ANGSTROEM)
---------------------------------
  C      0.000000    0.000000    0.000000

----------------------------
CARTESIAN COORDINATES (A.U.)
----------------------------
  NO LB      ZA    FRAG     MASS         X           Y           Z
   0 C     4.0000*   0    12.011    0.000000    0.000000    0.000000
* core charge reduced due to ECP

--------------------------------
INTERNAL COORDINATES (ANGSTROEM)
--------------------------------
 C      0   0   0     0.000000000000     0.00000000     0.00000000

---------------------------
INTERNAL COORDINATES (A.U.)
---------------------------
 C      0   0   0     0.000000000000     0.00000000     0.00000000

---------------------
BASIS SET INFORMATION
---------------------
There are 1 groups of distinct atoms

 Group   1 Type C   : 14s14p4d3f2g contracted to 5s5p4d3f2g pattern {101111/101111/1111/111/11}

Atom   0C    basis set group =>   1
-------------------------
ECP PARAMETER INFORMATION
-------------------------

 Group 1, Type C  ECP (replacing 2 core electrons, lmax=2)

Atom   0C    ECP group =>   1



           ************************************************************
           *        Program running with 4 parallel MPI-processes     *
           *              working on a common directory               *
           ************************************************************
------------------------------------------------------------------------------
                           ORCA GTO INTEGRAL CALCULATION
------------------------------------------------------------------------------
------------------------------------------------------------------------------
                   ___                                                        
                  /   \      - P O W E R E D   B Y -                         
                 /     \                                                     
                 |  |  |   _    _      __       _____    __    __             
                 |  |  |  | |  | |    /  \     |  _  \  |  |  /  |          
                  \  \/   | |  | |   /    \    | | | |  |  | /  /          
                 / \  \   | |__| |  /  /\  \   | |_| |  |  |/  /          
                |  |  |   |  __  | /  /__\  \  |    /   |      \           
                |  |  |   | |  | | |   __   |  |    \   |  |\   \          
                \     /   | |  | | |  |  |  |  | |\  \  |  | \   \       
                 \___/    |_|  |_| |__|  |__|  |_| \__\ |__|  \__/        
                                                                              
                      - O R C A' S   B I G   F R I E N D -                    
                                      &                                       
                       - I N T E G R A L  F E E D E R -                       
                                                                              
 v1 FN, 2020, v2 2021                                                         
------------------------------------------------------------------------------


Reading SHARK input file mol.SHARKINP.tmp ... ok
----------------------
SHARK INTEGRAL PACKAGE
----------------------

Number of atoms                             ...      1
Number of basis functions                   ...     79
Number of shells                            ...     19
Maximum angular momentum                    ...      4
Integral batch strategy                     ... SHARK/LIBINT Hybrid
RI-J (if used) integral strategy            ... SPLIT-RIJ (Revised 2003 algorithm where possible)
Printlevel                                  ...      1
Contraction scheme used                     ... SEGMENTED contraction
Coulomb Range Separation                    ... NOT USED
Exchange Range Separation                   ... NOT USED
Finite Nucleus Model                        ... NOT USED
Auxiliary Coulomb fitting basis             ... NOT available
Auxiliary J/K fitting basis                 ... NOT available
Auxiliary Correlation fitting basis         ... NOT available
Auxiliary 'external' fitting basis          ... NOT available
Integral threshold                          ...     1.000000e-12
Primitive cut-off                           ...     1.000000e-14
Primitive pair pre-selection threshold      ...     1.000000e-14

Calculating pre-screening integrals         ... done (  0.0 sec) Dimension = 19
Organizing shell pair data                  ... done (  0.0 sec)
Shell pair information
Total number of shell pairs                 ...       190
Shell pairs after pre-screening             ...       190
Total number of primitive shell pairs       ...       793
Primitive shell pairs kept                  ...       793
          la=0 lb=0:     15 shell pairs
          la=1 lb=0:     25 shell pairs
          la=1 lb=1:     15 shell pairs
          la=2 lb=0:     20 shell pairs
          la=2 lb=1:     20 shell pairs
          la=2 lb=2:     10 shell pairs
          la=3 lb=0:     15 shell pairs
          la=3 lb=1:     15 shell pairs
          la=3 lb=2:     12 shell pairs
          la=3 lb=3:      6 shell pairs
          la=4 lb=0:     10 shell pairs
          la=4 lb=1:     10 shell pairs
          la=4 lb=2:      8 shell pairs
          la=4 lb=3:      6 shell pairs
          la=4 lb=4:      3 shell pairs

Calculating one electron integrals          ... done (  0.0 sec)
Calculating ECP integrals                   ... done (  0.0 sec)
Calculating Nuclear repulsion               ... done (  0.0 sec) ENN=      0.000000000000 Eh

SHARK setup successfully completed in   0.2 seconds

Maximum memory used throughout the entire GTOINT-calculation: 33.5 MB


           ************************************************************
           *        Program running with 4 parallel MPI-processes     *
           *              working on a common directory               *
           ************************************************************
-------------------------------------------------------------------------------
                                 ORCA SCF
-------------------------------------------------------------------------------

------------
SCF SETTINGS
------------
Hamiltonian:
 Ab initio Hamiltonian  Method          .... Hartree-Fock(GTOs)


General Settings:
 Integral files         IntName         .... mol
 Hartree-Fock type      HFTyp           .... UHF
 Total Charge           Charge          ....    0
 Multiplicity           Mult            ....    3
 Number of Electrons    NEL             ....    4
 Basis Dimension        Dim             ....   79
 Nuclear Repulsion      ENuc            ....      0.0000000000 Eh

 Symmetry handling      UseSym         .... ON
 Point group                           .... D2h
 Used point group                      .... D2h
 Number of irreps                      .... 8
   Irrep   Ag has   19 symmetry adapted basis functions (ofs=   0)
   Irrep  B1g has    8 symmetry adapted basis functions (ofs=  19)
   Irrep  B2g has    8 symmetry adapted basis functions (ofs=  27)
   Irrep  B3g has    8 symmetry adapted basis functions (ofs=  35)
   Irrep   Au has    3 symmetry adapted basis functions (ofs=  43)
   Irrep  B1u has   11 symmetry adapted basis functions (ofs=  46)
   Irrep  B2u has   11 symmetry adapted basis functions (ofs=  57)
   Irrep  B3u has   11 symmetry adapted basis functions (ofs=  68)

Convergence Acceleration:
 DIIS                   CNVDIIS         .... on
   Start iteration      DIISMaxIt       ....    12
   Startup error        DIISStart       ....  0.200000
   # of expansion vecs  DIISMaxEq       ....     5
   Bias factor          DIISBfac        ....   1.050
   Max. coefficient     DIISMaxC        ....  10.000
 Trust-Rad. Augm. Hess. CNVTRAH         .... auto
   Auto Start mean grad. ratio tolernc. ....  1.125000
   Auto Start start iteration           ....    20
   Auto Start num. interpolation iter.  ....    10
   Max. Number of Micro iterations      ....    16
   Max. Number of Macro iterations      .... Maxiter - #DIIS iter
   Number of Davidson start vectors     ....     2
   Converg. threshold I  (grad. norm)   ....   2.000e-06
   Converg. threshold II (energy diff.) ....   1.000e-09
   Grad. Scal. Fac. for Micro threshold ....   0.100
   Minimum threshold for Micro iter.    ....   0.010
   NR start threshold (gradient norm)   ....   0.001
   Initial trust radius                 ....   0.400
   Minimum AH scaling param. (alpha)    ....   1.000
   Maximum AH scaling param. (alpha)    .... 1000.000
   Orbital update algorithm             .... Taylor
   White noise on init. David. guess    .... on
   Maximum white noise                  ....   0.010
   Quad. conv. algorithm                .... NR
 SOSCF                  CNVSOSCF        .... off
 Level Shifting         CNVShift        .... on
   Level shift para.    LevelShift      ....    0.2500
   Turn off err/grad.   ShiftErr        ....    0.0010
 Zerner damping         CNVZerner       .... off
 Static damping         CNVDamp         .... on
   Fraction old density DampFac         ....    0.7000
   Max. Damping (<1)    DampMax         ....    0.9800
   Min. Damping (>=0)   DampMin         ....    0.0000
   Turn off err/grad.   DampErr         ....    0.1000
 Fernandez-Rico         CNVRico         .... off

SCF Procedure:
 Maximum # iterations   MaxIter         ....   125
 SCF integral mode      SCFMode         .... Direct
   Integral package                     .... SHARK and LIBINT hybrid scheme
 Reset frequency        DirectResetFreq ....    20
 Integral Threshold     Thresh          ....  1.000e-12 Eh
 Primitive CutOff       TCut            ....  1.000e-14 Eh

Convergence Tolerance:
 Convergence Check Mode ConvCheckMode   .... Total+1el-Energy
 Convergence forced     ConvForced      .... 0
 Energy Change          TolE            ....  1.000e-09 Eh
 1-El. energy change                    ....  1.000e-06 Eh
 DIIS Error             TolErr          ....  1.000e-08


Diagonalization of the overlap matrix:
Smallest eigenvalue                        ... 3.440e-03
Time for diagonalization                   ...    0.001 sec
Threshold for overlap eigenvalues          ... 1.000e-08
Number of eigenvalues below threshold      ... 0
Time for construction of square roots      ...    0.001 sec
Producing symmetrization matrix            ... done (   0.000 sec)
Total time needed                          ...    0.003 sec

--------------------
INITIAL GUESS: HCORE
--------------------
Diagonalizing the Hamiltonian                      ... done
Diagonalizing the Hamiltonian                      ... done
Back transforming the eigenvectors                 ... done
                      -----------------
                      INTIAL GUESS DONE 
                      -----------------
The symmetry of the initial guess is 3-B1g
Irrep occupations for operator 0
    Ag -    1
   B1g -    0
   B2g -    0
   B3g -    0
    Au -    0
   B1u -    0
   B2u -    1
   B3u -    1
Irrep occupations for operator 1
    Ag -    1
   B1g -    0
   B2g -    0
   B3g -    0
    Au -    0
   B1u -    0
   B2u -    0
   B3u -    0
--------------
SCF ITERATIONS
--------------
ITER       Energy         Delta-E        Max-DP      RMS-DP      [F,P]     Damp
               ***  Starting incremental Fock matrix formation  ***
  0     -4.8706674417   0.000000000000 0.39312608  0.00731973  0.3306072 0.7000
  1     -4.9960750176  -0.125407575930 0.31335596  0.00579223  0.2457016 0.7000
                               ***Turning on DIIS***
  2     -5.0903683033  -0.094293285715 0.22680867  0.00416161  0.1718568 0.7000
  3     -5.2721220944  -0.181753791075 0.16002678  0.00291561  0.1172894 0.7000
  4     -5.3209093798  -0.048787285397 0.37808857  0.00681754  0.0799497 0.0000
  5     -5.3222150593  -0.001305679468 0.01484401  0.00018525  0.0062584 0.0000
  6     -5.3223257020  -0.000110642701 0.01223127  0.00016245  0.0034421 0.0000
  7     -5.3215808635   0.000744838451 0.00375593  0.00005754  0.0012000 0.0000
  8     -5.3213399770   0.000240886551 0.00161195  0.00002752  0.0004688 0.0000
  9     -5.3212603451   0.000079631869 0.00023162  0.00000365  0.0000577 0.0000
 10     -5.3212479104   0.000012434742 0.00001735  0.00000031  0.0000054 0.0000
 11     -5.3212486776  -0.000000767270 0.00000400  0.00000007  0.0000011 0.0000
 12     -5.3212482698   0.000000407796 0.00000062  0.00000001  0.0000001 0.0000
                            ***DIIS convergence achieved***

               *****************************************************
               *                     SUCCESS                       *
               *           SCF CONVERGED AFTER  13 CYCLES          *
               *****************************************************


----------------
TOTAL SCF ENERGY
----------------

Total Energy       :           -5.32124823 Eh            -144.79853 eV

Components:
Nuclear Repulsion  :            0.00000000 Eh               0.00000 eV
Electronic Energy  :           -5.32124823 Eh            -144.79853 eV
One Electron Energy:           -8.35028105 Eh            -227.22270 eV
Two Electron Energy:            3.02903283 Eh              82.42417 eV

Virial components:
Potential Energy   :           -8.66473146 Eh            -235.77933 eV
Kinetic Energy     :            3.34348323 Eh              90.98080 eV
Virial Ratio       :            2.59152831


---------------
SCF CONVERGENCE
---------------

  Last Energy change         ...    4.3901e-08  Tolerance :   1.0000e-09
  Last MAX-Density change    ...    7.1017e-08  Tolerance :   1.0000e-08
  Last RMS-Density change    ...    1.1777e-09  Tolerance :   1.0000e-09
  Last DIIS Error            ...    1.8285e-08  Tolerance :   1.0000e-08

             **** THE GBW FILE WAS UPDATED (mol.gbw) ****
             **** DENSITY mol.scfp WAS UPDATED ****
             **** ENERGY FILE WAS UPDATED (mol.en.tmp) ****
----------------------
UHF SPIN CONTAMINATION
----------------------

Expectation value of <S**2>     :     2.012026
Ideal value S*(S+1) for S=1.0   :     2.000000
Deviation                       :     0.012026

             **** THE GBW FILE WAS UPDATED (mol.gbw) ****
             **** DENSITY mol.scfp WAS UPDATED ****
----------------
ORBITAL ENERGIES
----------------
                 SPIN UP ORBITALS
  NO   OCC          E(Eh)            E(eV)    Irrep 
   0   1.0000      -0.835694       -22.7404    1-Ag
   1   1.0000      -0.439661       -11.9638    1-B3u
   2   1.0000      -0.439661       -11.9638    1-B2u
   3   0.0000       0.017551         0.4776    1-B1u
   4   0.0000       0.087984         2.3942    2-B3u
   5   0.0000       0.087984         2.3942    2-B2u
   6   0.0000       0.094475         2.5708    2-Ag
   7   0.0000       0.112605         3.0641    2-B1u
   8   0.0000       0.241235         6.5643    3-Ag
   9   0.0000       0.241521         6.5721    1-B2g
  10   0.0000       0.241521         6.5721    1-B3g
  11   0.0000       0.243200         6.6178    1-B1g
  12   0.0000       0.243200         6.6178    4-Ag
  13   0.0000       0.431222        11.7341    3-B3u
  14   0.0000       0.431222        11.7341    3-B2u
  15   0.0000       0.475840        12.9483    3-B1u
  16   0.0000       0.548849        14.9349    5-Ag
  17   0.0000       0.737847        20.0778    4-B1u
  18   0.0000       0.739034        20.1101    4-B2u
  19   0.0000       0.739034        20.1101    4-B3u
  20   0.0000       0.742722        20.2105    1-Au
  21   0.0000       0.742722        20.2105    5-B1u
  22   0.0000       0.748986        20.3809    5-B2u
  23   0.0000       0.748986        20.3809    5-B3u
  24   0.0000       0.781596        21.2683    2-B1g
  25   0.0000       0.781596        21.2683    6-Ag
  26   0.0000       0.792335        21.5605    2-B2g
  27   0.0000       0.792335        21.5605    2-B3g
  28   0.0000       0.797101        21.6902    7-Ag
  29   0.0000       1.545797        42.0633    6-B2u
  30   0.0000       1.545797        42.0633    6-B3u
  31   0.0000       1.578155        42.9438    6-B1u
  32   0.0000       2.049885        55.7802    8-Ag
  33   0.0000       2.051423        55.8221    3-B2g
  34   0.0000       2.051423        55.8221    3-B3g
  35   0.0000       2.056053        55.9481    9-Ag
  36   0.0000       2.056053        55.9481    3-B1g
  37   0.0000       2.063810        56.1591    4-B2g
  38   0.0000       2.063810        56.1591    4-B3g
  39   0.0000       2.074703        56.4555   10-Ag
  40   0.0000       2.074703        56.4555    4-B1g
  41   0.0000       2.229431        60.6659    7-B1u
  42   0.0000       2.231460        60.7211    7-B3u
  43   0.0000       2.231460        60.7211    7-B2u
  44   0.0000       2.237578        60.8876    8-B1u
  45   0.0000       2.237578        60.8876    2-Au
  46   0.0000       2.247795        61.1656    8-B3u
  47   0.0000       2.247795        61.1656    8-B2u
  48   0.0000       2.251992        61.2798   11-Ag
  49   0.0000       2.251992        61.2798    5-B1g
  50   0.0000       2.257531        61.4305   12-Ag
  51   0.0000       2.260737        61.5178    5-B2g
  52   0.0000       2.260737        61.5178    5-B3g
  53   0.0000       2.286854        62.2285   13-Ag
  54   0.0000       5.567111       151.4888    9-B1u
  55   0.0000       5.567768       151.5067    9-B3u
  56   0.0000       5.567768       151.5067    9-B2u
  57   0.0000       5.838106       158.8629   14-Ag
  58   0.0000       5.840731       158.9344    6-B2g
  59   0.0000       5.840731       158.9344    6-B3g
  60   0.0000       5.848623       159.1491   15-Ag
  61   0.0000       5.848623       159.1491    6-B1g
  62   0.0000       5.861823       159.5083    7-B2g
  63   0.0000       5.861823       159.5083    7-B3g
  64   0.0000       5.880390       160.0135   16-Ag
  65   0.0000       5.880390       160.0135    7-B1g
  66   0.0000       6.258421       170.3003   10-B1u
  67   0.0000       6.261823       170.3929   10-B3u
  68   0.0000       6.261823       170.3929   10-B2u
  69   0.0000       6.272074       170.6718   11-B1u
  70   0.0000       6.272074       170.6718    3-Au
  71   0.0000       6.289337       171.1415   11-B3u
  72   0.0000       6.289337       171.1415   11-B2u
  73   0.0000       6.541227       177.9958   17-Ag
  74   0.0000       6.544345       178.0807    8-B2g
  75   0.0000       6.544345       178.0807    8-B3g
  76   0.0000       6.553994       178.3433   18-Ag
  77   0.0000       6.553994       178.3433    8-B1g
  78   0.0000       9.442715       256.9493   19-Ag

                 SPIN DOWN ORBITALS
  NO   OCC          E(Eh)            E(eV)    Irrep 
   0   1.0000      -0.577198       -15.7064    1-Ag
   1   0.0000       0.036780         1.0008    1-B1u
   2   0.0000       0.060242         1.6393    1-B2u
   3   0.0000       0.060242         1.6393    1-B3u
   4   0.0000       0.105813         2.8793    2-Ag
   5   0.0000       0.129230         3.5165    2-B1u
   6   0.0000       0.166615         4.5338    2-B2u
   7   0.0000       0.166615         4.5338    2-B3u
   8   0.0000       0.245324         6.6756    3-Ag
   9   0.0000       0.247622         6.7381    1-B3g
  10   0.0000       0.247622         6.7381    1-B2g
  11   0.0000       0.255289         6.9468    4-Ag
  12   0.0000       0.255289         6.9468    1-B1g
  13   0.0000       0.496181        13.5018    3-B1u
  14   0.0000       0.534319        14.5396    3-B2u
  15   0.0000       0.534319        14.5396    3-B3u
  16   0.0000       0.593645        16.1539    5-Ag
  17   0.0000       0.743902        20.2426    4-B1u
  18   0.0000       0.746026        20.3004    4-B3u
  19   0.0000       0.746026        20.3004    4-B2u
  20   0.0000       0.752482        20.4761    5-B1u
  21   0.0000       0.752482        20.4761    1-Au
  22   0.0000       0.763687        20.7810    5-B2u
  23   0.0000       0.763687        20.7810    5-B3u
  24   0.0000       0.825901        22.4739    6-Ag
  25   0.0000       0.834088        22.6967    2-B3g
  26   0.0000       0.834088        22.6967    2-B2g
  27   0.0000       0.861823        23.4514    7-Ag
  28   0.0000       0.861823        23.4514    2-B1g
  29   0.0000       1.602770        43.6136    6-B1u
  30   0.0000       1.655962        45.0610    6-B2u
  31   0.0000       1.655962        45.0610    6-B3u
  32   0.0000       2.060172        56.0601    8-Ag
  33   0.0000       2.062496        56.1234    3-B2g
  34   0.0000       2.062496        56.1234    3-B3g
  35   0.0000       2.069508        56.3142    9-Ag
  36   0.0000       2.069508        56.3142    3-B1g
  37   0.0000       2.081340        56.6361    4-B2g
  38   0.0000       2.081340        56.6361    4-B3g
  39   0.0000       2.098239        57.0960   10-Ag
  40   0.0000       2.098239        57.0960    4-B1g
  41   0.0000       2.254824        61.3569    7-B1u
  42   0.0000       2.260286        61.5055    7-B3u
  43   0.0000       2.260286        61.5055    7-B2u
  44   0.0000       2.276881        61.9571    8-B1u
  45   0.0000       2.276881        61.9571    2-Au
  46   0.0000       2.305612        62.7389    8-B3u
  47   0.0000       2.305612        62.7389    8-B2u
  48   0.0000       2.316182        63.0265   11-Ag
  49   0.0000       2.330557        63.4177    5-B2g
  50   0.0000       2.330557        63.4177    5-B3g
  51   0.0000       2.354860        64.0790   12-Ag
  52   0.0000       2.377407        64.6925   13-Ag
  53   0.0000       2.377407        64.6925    5-B1g
  54   0.0000       5.588926       152.0824    9-B1u
  55   0.0000       5.646583       153.6513    9-B3u
  56   0.0000       5.646583       153.6513    9-B2u
  57   0.0000       5.862553       159.5282   14-Ag
  58   0.0000       5.866859       159.6454    6-B3g
  59   0.0000       5.866859       159.6454    6-B2g
  60   0.0000       5.879838       159.9985   15-Ag
  61   0.0000       5.879838       159.9985    6-B1g
  62   0.0000       5.901671       160.5926    7-B2g
  63   0.0000       5.901671       160.5926    7-B3g
  64   0.0000       5.932685       161.4366   16-Ag
  65   0.0000       5.932685       161.4366    7-B1g
  66   0.0000       6.296287       171.3307   10-B1u
  67   0.0000       6.304206       171.5462   10-B3u
  68   0.0000       6.304206       171.5462   10-B2u
  69   0.0000       6.328172       172.1983   11-B1u
  70   0.0000       6.328172       172.1983    3-Au
  71   0.0000       6.369319       173.3180   11-B2u
  72   0.0000       6.369319       173.3180   11-B3u
  73   0.0000       6.584231       179.1660   17-Ag
  74   0.0000       6.600146       179.5991    8-B2g
  75   0.0000       6.600146       179.5991    8-B3g
  76   0.0000       6.649759       180.9491   18-Ag
  77   0.0000       6.649759       180.9491    8-B1g
  78   0.0000       9.488809       258.2036   19-Ag

                    ********************************
                    * MULLIKEN POPULATION ANALYSIS *
                    ********************************

--------------------------------------------
MULLIKEN ATOMIC CHARGES AND SPIN POPULATIONS
--------------------------------------------
   0 C :   -0.000000    2.000000
Sum of atomic charges         :   -0.0000000
Sum of atomic spin populations:    2.0000000

-----------------------------------------------------
MULLIKEN REDUCED ORBITAL CHARGES AND SPIN POPULATIONS
-----------------------------------------------------
CHARGE
  0 C s       :     1.996864  s :     1.996864
      pz      :     0.000000  p :     1.999992
      px      :     0.999996
      py      :     0.999996
      dz2     :     0.003136  d :     0.003136
      dxz     :     0.000000
      dyz     :     0.000000
      dx2y2   :     0.000000
      dxy     :     0.000000
      f0      :     0.000000  f :     0.000008
      f+1     :     0.000004
      f-1     :     0.000004
      f+2     :     0.000000
      f-2     :     0.000000
      f+3     :     0.000000
      f-3     :     0.000000
      g0      :     0.000000  g :     0.000000
      g+1     :     0.000000
      g-1     :     0.000000
      g+2     :     0.000000
      g-2     :     0.000000
      g+3     :     0.000000
      g-3     :     0.000000
      g+4     :     0.000000
      g-4     :     0.000000

SPIN
  0 C s       :    -0.000289  s :    -0.000289
      pz      :     0.000000  p :     1.999992
      px      :     0.999996
      py      :     0.999996
      dz2     :     0.000289  d :     0.000289
      dxz     :     0.000000
      dyz     :     0.000000
      dx2y2   :    -0.000000
      dxy     :     0.000000
      f0      :     0.000000  f :     0.000008
      f+1     :     0.000004
      f-1     :     0.000004
      f+2     :     0.000000
      f-2     :     0.000000
      f+3     :     0.000000
      f-3     :     0.000000
      g0      :    -0.000000  g :    -0.000000
      g+1     :     0.000000
      g-1     :     0.000000
      g+2     :     0.000000
      g-2     :     0.000000
      g+3     :     0.000000
      g-3     :     0.000000
      g+4     :     0.000000
      g-4     :     0.000000


                     *******************************
                     * LOEWDIN POPULATION ANALYSIS *
                     *******************************

-------------------------------------------
LOEWDIN ATOMIC CHARGES AND SPIN POPULATIONS
-------------------------------------------
   0 C :   -0.000000    2.000000

----------------------------------------------------
LOEWDIN REDUCED ORBITAL CHARGES AND SPIN POPULATIONS
----------------------------------------------------
CHARGE
  0 C s       :     1.996864  s :     1.996864
      pz      :     0.000000  p :     1.999992
      px      :     0.999996
      py      :     0.999996
      dz2     :     0.003136  d :     0.003136
      dxz     :     0.000000
      dyz     :     0.000000
      dx2y2   :     0.000000
      dxy     :     0.000000
      f0      :     0.000000  f :     0.000008
      f+1     :     0.000004
      f-1     :     0.000004
      f+2     :     0.000000
      f-2     :     0.000000
      f+3     :     0.000000
      f-3     :     0.000000
      g0      :     0.000000  g :     0.000000
      g+1     :     0.000000
      g-1     :     0.000000
      g+2     :     0.000000
      g-2     :     0.000000
      g+3     :     0.000000
      g-3     :     0.000000
      g+4     :     0.000000
      g-4     :     0.000000

SPIN
  0 C s       :    -0.000289  s :    -0.000289
      pz      :     0.000000  p :     1.999992
      px      :     0.999996
      py      :     0.999996
      dz2     :     0.000289  d :     0.000289
      dxz     :     0.000000
      dyz     :     0.000000
      dx2y2   :    -0.000000
      dxy     :     0.000000
      f0      :     0.000000  f :     0.000008
      f+1     :     0.000004
      f-1     :     0.000004
      f+2     :     0.000000
      f-2     :     0.000000
      f+3     :     0.000000
      f-3     :     0.000000
      g0      :    -0.000000  g :    -0.000000
      g+1     :     0.000000
      g-1     :     0.000000
      g+2     :     0.000000
      g-2     :     0.000000
      g+3     :     0.000000
      g-3     :     0.000000
      g+4     :     0.000000
      g-4     :    -0.000000


                      *****************************
                      * MAYER POPULATION ANALYSIS *
                      *****************************

  NA   - Mulliken gross atomic population
  ZA   - Total nuclear charge
  QA   - Mulliken gross atomic charge
  VA   - Mayer's total valence
  BVA  - Mayer's bonded valence
  FA   - Mayer's free valence

  ATOM       NA         ZA         QA         VA         BVA        FA
  0 C      4.0000     4.0000    -0.0000     2.0241     0.0000     2.0241

  Mayer bond orders larger than 0.100000


-------
TIMINGS
-------

Total SCF time: 0 days 0 hours 0 min 1 sec 

Total time                  ....       1.923 sec
Sum of individual times     ....       1.745 sec  ( 90.7%)

Fock matrix formation       ....       1.679 sec  ( 87.3%)
Diagonalization             ....       0.030 sec  (  1.6%)
Density matrix formation    ....       0.001 sec  (  0.1%)
Population analysis         ....       0.003 sec  (  0.2%)
Initial guess               ....       0.001 sec  (  0.0%)
Orbital Transformation      ....       0.000 sec  (  0.0%)
Orbital Orthonormalization  ....       0.000 sec  (  0.0%)
DIIS solution               ....       0.030 sec  (  1.6%)

Maximum memory used throughout the entire SCF-calculation: 228.3 MB

-------------------------   --------------------
FINAL SINGLE POINT ENERGY        -5.321248225939
-------------------------   --------------------


                            ***************************************
                            *     ORCA property calculations      *
                            ***************************************

                                    ---------------------
                                    Active property flags
                                    ---------------------
   (+) Dipole Moment


------------------------------------------------------------------------------
                       ORCA ELECTRIC PROPERTIES CALCULATION
------------------------------------------------------------------------------

Dipole Moment Calculation                       ... on
Quadrupole Moment Calculation                   ... off
Polarizability Calculation                      ... off
GBWName                                         ... mol.gbw
Electron density                                ... mol.scfp
The origin for moment calculation is the CENTER OF MASS  = ( 0.000000,  0.000000  0.000000)

-------------
DIPOLE MOMENT
-------------
                                X             Y             Z
Electronic contribution:      0.00000       0.00000       0.00000
Nuclear contribution   :      0.00000       0.00000       0.00000
                        -----------------------------------------
Total Dipole Moment    :      0.00000       0.00000       0.00000
                        -----------------------------------------
Magnitude (a.u.)       :      0.00000
Magnitude (Debye)      :      0.00000



--------------------
Rotational spectrum 
--------------------
 
Rotational constants in cm-1:     0.000000     0.000000     0.000000 
Rotational constants in MHz :     0.000000     0.000000     0.000000 

 Dipole components along the rotational axes: 
x,y,z [a.u.] :     0.000000     0.000000     0.000000 
x,y,z [Debye]:     0.000000     0.000000     0.000000 

 

Timings for individual modules:

Sum of individual times         ...        2.943 sec (=   0.049 min)
GTO integral calculation        ...        0.622 sec (=   0.010 min)  21.1 %
SCF iterations                  ...        2.321 sec (=   0.039 min)  78.9 %
                             ****ORCA TERMINATED NORMALLY****
TOTAL RUN TIME: 0 days 0 hours 0 minutes 3 seconds 477 msec
