
                                 *****************
                                 * O   R   C   A *
                                 *****************

                                            #,                                       
                                            ###                                      
                                            ####                                     
                                            #####                                    
                                            ######                                   
                                           ########,                                 
                                     ,,################,,,,,                         
                               ,,#################################,,                 
                          ,,##########################################,,             
                       ,#########################################, ''#####,          
                    ,#############################################,,   '####,        
                  ,##################################################,,,,####,       
                ,###########''''           ''''###############################       
              ,#####''   ,,,,##########,,,,          '''####'''          '####       
            ,##' ,,,,###########################,,,                        '##       
           ' ,,###''''                  '''############,,,                           
         ,,##''                                '''############,,,,        ,,,,,,###''
      ,#''                                            '''#######################'''  
     '                                                          ''''####''''         
             ,#######,   #######,   ,#######,      ##                                
            ,#'     '#,  ##    ##  ,#'     '#,    #''#        ######   ,####,        
            ##       ##  ##   ,#'  ##            #'  '#       #        #'  '#        
            ##       ##  #######   ##           ,######,      #####,   #    #        
            '#,     ,#'  ##    ##  '#,     ,#' ,#      #,         ##   #,  ,#        
             '#######'   ##     ##  '#######'  #'      '#     #####' # '####'        



                  #######################################################
                  #                        -***-                        #
                  #          Department of theory and spectroscopy      #
                  #    Directorship and core code : Frank Neese         #
                  #        Max Planck Institute fuer Kohlenforschung    #
                  #                Kaiser Wilhelm Platz 1               #
                  #                 D-45470 Muelheim/Ruhr               #
                  #                      Germany                        #
                  #                                                     #
                  #                  All rights reserved                #
                  #                        -***-                        #
                  #######################################################


                         Program Version 5.0.3 -  RELEASE  -


 With contributions from (in alphabetic order):
   Daniel Aravena         : Magnetic Suceptibility
   Michael Atanasov       : Ab Initio Ligand Field Theory (pilot matlab implementation)
   Alexander A. Auer      : GIAO ZORA, VPT2 properties, NMR spectrum
   Ute Becker             : Parallelization
   Giovanni Bistoni       : ED, misc. LED, open-shell LED, HFLD
   Martin Brehm           : Molecular dynamics
   Dmytro Bykov           : SCF Hessian
   Vijay G. Chilkuri      : MRCI spin determinant printing, contributions to CSF-ICE
   Dipayan Datta          : RHF DLPNO-CCSD density
   Achintya Kumar Dutta   : EOM-CC, STEOM-CC
   Dmitry Ganyushin       : Spin-Orbit,Spin-Spin,Magnetic field MRCI
   Miquel Garcia          : C-PCM and meta-GGA Hessian, CC/C-PCM, Gaussian charge scheme
   Yang Guo               : DLPNO-NEVPT2, F12-NEVPT2, CIM, IAO-localization
   Andreas Hansen         : Spin unrestricted coupled pair/coupled cluster methods
   Benjamin Helmich-Paris : MC-RPA, TRAH-SCF, COSX integrals
   Lee Huntington         : MR-EOM, pCC
   Robert Izsak           : Overlap fitted RIJCOSX, COSX-SCS-MP3, EOM
   Marcus Kettner         : VPT2
   Christian Kollmar      : KDIIS, OOCD, Brueckner-CCSD(T), CCSD density, CASPT2, CASPT2-K
   Simone Kossmann        : Meta GGA functionals, TD-DFT gradient, OOMP2, MP2 Hessian
   Martin Krupicka        : Initial AUTO-CI
   Lucas Lang             : DCDCAS
   Marvin Lechner         : AUTO-CI (C++ implementation), FIC-MRCC
   Dagmar Lenk            : GEPOL surface, SMD
   Dimitrios Liakos       : Extrapolation schemes; Compound Job, initial MDCI parallelization
   Dimitrios Manganas     : Further ROCIS development; embedding schemes
   Dimitrios Pantazis     : SARC Basis sets
   Anastasios Papadopoulos: AUTO-CI, single reference methods and gradients
   Taras Petrenko         : DFT Hessian,TD-DFT gradient, ASA, ECA, R-Raman, ABS, FL, XAS/XES, NRVS
   Peter Pinski           : DLPNO-MP2, DLPNO-MP2 Gradient
   Christoph Reimann      : Effective Core Potentials
   Marius Retegan         : Local ZFS, SOC
   Christoph Riplinger    : Optimizer, TS searches, QM/MM, DLPNO-CCSD(T), (RO)-DLPNO pert. Triples
   Tobias Risthaus        : Range-separated hybrids, TD-DFT gradient, RPA, STAB
   Michael Roemelt        : Original ROCIS implementation
   Masaaki Saitow         : Open-shell DLPNO-CCSD energy and density
   Barbara Sandhoefer     : DKH picture change effects
   Avijit Sen             : IP-ROCIS
   Kantharuban Sivalingam : CASSCF convergence, NEVPT2, FIC-MRCI
   Bernardo de Souza      : ESD, SOC TD-DFT
   Georgi Stoychev        : AutoAux, RI-MP2 NMR, DLPNO-MP2 response
   Willem Van den Heuvel  : Paramagnetic NMR
   Boris Wezisla          : Elementary symmetry handling
   Frank Wennmohs         : Technical directorship


 We gratefully acknowledge several colleagues who have allowed us to
 interface, adapt or use parts of their codes:
   Stefan Grimme, W. Hujo, H. Kruse, P. Pracht,  : VdW corrections, initial TS optimization,
                  C. Bannwarth, S. Ehlert          DFT functionals, gCP, sTDA/sTD-DF
   Ed Valeev, F. Pavosevic, A. Kumar             : LibInt (2-el integral package), F12 methods
   Garnet Chan, S. Sharma, J. Yang, R. Olivares  : DMRG
   Ulf Ekstrom                                   : XCFun DFT Library
   Mihaly Kallay                                 : mrcc  (arbitrary order and MRCC methods)
   Jiri Pittner, Ondrej Demel                    : Mk-CCSD
   Frank Weinhold                                : gennbo (NPA and NBO analysis)
   Christopher J. Cramer and Donald G. Truhlar   : smd solvation model
   Lars Goerigk                                  : TD-DFT with DH, B97 family of functionals
   V. Asgeirsson, H. Jonsson                     : NEB implementation
   FAccTs GmbH                                   : IRC, NEB, NEB-TS, DLPNO-Multilevel, CI-OPT
                                                   MM, QMMM, 2- and 3-layer-ONIOM, Crystal-QMMM,
                                                   LR-CPCM, SF, NACMEs, symmetry and pop. for TD-DFT,
                                                   nearIR, NL-DFT gradient (VV10), updates on ESD,
                                                   ML-optimized integration grids
   S Lehtola, MJT Oliveira, MAL Marques          : LibXC Library
   Liviu Ungur et al                             : ANISO software


 Your calculation uses the libint2 library for the computation of 2-el integrals
 For citations please refer to: http://libint.valeyev.net

 Your ORCA version has been built with support for libXC version: 5.1.0
 For citations please refer to: https://tddft.org/programs/libxc/

 This ORCA versions uses:
   CBLAS   interface :  Fast vector & matrix operations
   LAPACKE interface :  Fast linear algebra routines
   SCALAPACK package :  Parallel linear algebra routines
   Shared memory     :  Shared parallel matrices
   BLAS/LAPACK       :  OpenBLAS 0.3.15  USE64BITINT DYNAMIC_ARCH NO_AFFINITY Haswell SINGLE_THREADED
        Core in use  :  Haswell
   Copyright (c) 2011-2014, The OpenBLAS Project


Reading of a custom orbital basis requested
Basis file: ../../../../basis/aug-cc-pVQZ-CDF.bas
READING GTO-BASIS: HYDROGEN
READING GTO-BASIS: BORON
READING GTO-BASIS: CARBON
READING GTO-BASIS: NITROGEN
READING GTO-BASIS: OXYGEN
READING GTO-BASIS: FLUORINE
READING GTO-BASIS: NEON
Basis read successfully!



***************************************
The coordinates will be read from file: ../../../../../chem_database/C.xyz
***************************************


================================================================================

----- Orbital basis set information -----
Basis read from file: ../../../../basis/aug-cc-pVQZ-CDF.bas

================================================================================
                                        WARNINGS
                       Please study these warnings very carefully!
================================================================================


INFO   : the flag for use of the SHARK integral package has been found!


WARNING: TRAH-SCF with ROHF wave function is not implemented yet
  ===> : Turning TRAH off

================================================================================
                                       INPUT FILE
================================================================================
NAME = mol.inp
|  1> # ================================================================
|  2> # Orca input file
|  3> # ================================================================
|  4> ! ROHF cc-pVDZ VeryTightSCF UseSym
|  5> ! PAL4
|  6> 
|  7> %scf
|  8>   Guess = HCore
|  9>   ROHF_case SAHF    # spin averaged HF
| 10>   ROHF_NumOp   2    # 2 operators in this case: closed, open
| 11>   ROHF_NOrb[1] 3    # 3 orbitals in first open shell
| 12>   ROHF_NEl[1]  2    # 2 electrons in first open shell
| 13> end
| 14> 
| 15> %basis
| 16> GTOName = "../../../../basis/aug-cc-pVQZ-CDF.bas";
| 17> newecp C
| 18>  N_core 2
| 19>  lmax d
| 20>  d 8
| 21>   1           14.18038947           4.00000000    1
| 22>   2            9.98337117     -191045.80417457    2
| 23>   3           12.48203153      191036.22253941    2
| 24>   4            7.90943462          -5.44386315    3
| 25>   5            7.13014891          62.16542104    3
| 26>   6           12.72575413       44221.23987918    4
| 27>   7           10.28807138      146831.00815853    4
| 28>   8           11.48850451      286186.73250606    4
| 29>  s 8
| 30>   1            9.50142741       -3750.11048539    2
| 31>   2            5.56933451        3760.37648333    2
| 32>   3           15.38467668        -282.45495330    3
| 33>   4           12.61293221         395.21455742    3
| 34>   5            4.78267585        -112.75960412    3
| 35>   6           10.02732151       10961.18997530    4
| 36>   7            6.38496423       -7322.83872921    4
| 37>   8            9.56239560      -18326.95925617    4
| 38>  p 8
| 39>   1            8.69277599      -69979.38345477    2
| 40>   2            9.78057783       69976.82776410    2
| 41>   3            7.36054009       -7317.21246438    3
| 42>   4            9.35997886        1187.74671018    3
| 43>   5            6.97849340        6129.46575421    3
| 44>   6            9.23165085       76379.77670179    4
| 45>   7            5.85803103        -269.92729934    4
| 46>   8           95.35707275         -11.14397361    4
| 47> end
| 48> 
| 49> end
| 50> 
| 51> * xyzfile 0 3 ../../../../../chem_database/C.xyz
| 52> 
| 53>                          ****END OF INPUT****
================================================================================

------------------------------------------------------------------------------
                            SYMMETRY HANDLING SETUP
------------------------------------------------------------------------------

------------------
SYMMETRY DETECTION
------------------
The point group will now be determined using a tolerance of 1.0000e-04.
The Z matrix contains a single non-dummy atom.
No further testing needed for point group Kh.
This point group has been found:    Kh
Largest non-degenerate subgroup:    D2h


Symmetry-perfected Cartesians (point groups Kh and D2h):

Atom          Symmetry-perfected Cartesians (x, y, z; au)
  0       0.000000000000    0.000000000000    0.000000000000


-----------------------------------------------
SYMMETRY-PERFECTED CARTESIAN COORDINATES (A.U.)
-----------------------------------------------
Warning (ORCA_SYM): Coordinates were not cleaned so far!

------------------
SYMMETRY REDUCTION
------------------
ORCA supports only abelian point groups.
It is now checked, if the determined point group is supported:
Point Group ( D2h   ) is          ... supported

(Re)building abelian point group:
Creating Character Table          ... done
Making direct product table       ... done
Constructing symmetry operations  ... done
Creating atom transfer table      ... done
Creating asymmetric unit          ... done

----------------------
ASYMMETRIC UNIT IN D2h
----------------------
  #  AT     MASS              COORDS (A.U.)             BAS
   0 C   12.0110   0.00000000   0.00000000   0.00000000   0

----------------------
SYMMETRY ADAPTED BASIS
----------------------
The coefficients for the symmetry adapted linear combinations (SALCS)
of basis functions will now be computed:
Number of basis functions         ...    79
Preparing memory                  ... done
Constructing Gamma(red)           ... done
Reducing Gamma(red)               ... done
Constructing SALCs                ... done
Checking SALC integrity           ... nothing suspicious
Normalizing SALCs                 ... done

Storing the symmetry object:
Symmetry file                     ... mol.sym.tmp
Writing symmetry information      ... done

                       ****************************
                       * Single Point Calculation *
                       ****************************

---------------------------------
CARTESIAN COORDINATES (ANGSTROEM)
---------------------------------
  C      0.000000    0.000000    0.000000

----------------------------
CARTESIAN COORDINATES (A.U.)
----------------------------
  NO LB      ZA    FRAG     MASS         X           Y           Z
   0 C     4.0000*   0    12.011    0.000000    0.000000    0.000000
* core charge reduced due to ECP

--------------------------------
INTERNAL COORDINATES (ANGSTROEM)
--------------------------------
 C      0   0   0     0.000000000000     0.00000000     0.00000000

---------------------------
INTERNAL COORDINATES (A.U.)
---------------------------
 C      0   0   0     0.000000000000     0.00000000     0.00000000

---------------------
BASIS SET INFORMATION
---------------------
There are 1 groups of distinct atoms

 Group   1 Type C   : 14s14p4d3f2g contracted to 5s5p4d3f2g pattern {101111/101111/1111/111/11}

Atom   0C    basis set group =>   1
-------------------------
ECP PARAMETER INFORMATION
-------------------------

 Group 1, Type C  ECP (replacing 2 core electrons, lmax=2)

Atom   0C    ECP group =>   1



           ************************************************************
           *        Program running with 4 parallel MPI-processes     *
           *              working on a common directory               *
           ************************************************************
------------------------------------------------------------------------------
                           ORCA GTO INTEGRAL CALCULATION
------------------------------------------------------------------------------
------------------------------------------------------------------------------
                   ___                                                        
                  /   \      - P O W E R E D   B Y -                         
                 /     \                                                     
                 |  |  |   _    _      __       _____    __    __             
                 |  |  |  | |  | |    /  \     |  _  \  |  |  /  |          
                  \  \/   | |  | |   /    \    | | | |  |  | /  /          
                 / \  \   | |__| |  /  /\  \   | |_| |  |  |/  /          
                |  |  |   |  __  | /  /__\  \  |    /   |      \           
                |  |  |   | |  | | |   __   |  |    \   |  |\   \          
                \     /   | |  | | |  |  |  |  | |\  \  |  | \   \       
                 \___/    |_|  |_| |__|  |__|  |_| \__\ |__|  \__/        
                                                                              
                      - O R C A' S   B I G   F R I E N D -                    
                                      &                                       
                       - I N T E G R A L  F E E D E R -                       
                                                                              
 v1 FN, 2020, v2 2021                                                         
------------------------------------------------------------------------------


Reading SHARK input file mol.SHARKINP.tmp ... ok
----------------------
SHARK INTEGRAL PACKAGE
----------------------

Number of atoms                             ...      1
Number of basis functions                   ...     79
Number of shells                            ...     19
Maximum angular momentum                    ...      4
Integral batch strategy                     ... SHARK/LIBINT Hybrid
RI-J (if used) integral strategy            ... SPLIT-RIJ (Revised 2003 algorithm where possible)
Printlevel                                  ...      1
Contraction scheme used                     ... SEGMENTED contraction
Coulomb Range Separation                    ... NOT USED
Exchange Range Separation                   ... NOT USED
Finite Nucleus Model                        ... NOT USED
Auxiliary Coulomb fitting basis             ... NOT available
Auxiliary J/K fitting basis                 ... NOT available
Auxiliary Correlation fitting basis         ... NOT available
Auxiliary 'external' fitting basis          ... NOT available
Integral threshold                          ...     1.000000e-12
Primitive cut-off                           ...     1.000000e-14
Primitive pair pre-selection threshold      ...     1.000000e-14

Calculating pre-screening integrals         ... done (  0.0 sec) Dimension = 19
Organizing shell pair data                  ... done (  0.0 sec)
Shell pair information
Total number of shell pairs                 ...       190
Shell pairs after pre-screening             ...       190
Total number of primitive shell pairs       ...       793
Primitive shell pairs kept                  ...       793
          la=0 lb=0:     15 shell pairs
          la=1 lb=0:     25 shell pairs
          la=1 lb=1:     15 shell pairs
          la=2 lb=0:     20 shell pairs
          la=2 lb=1:     20 shell pairs
          la=2 lb=2:     10 shell pairs
          la=3 lb=0:     15 shell pairs
          la=3 lb=1:     15 shell pairs
          la=3 lb=2:     12 shell pairs
          la=3 lb=3:      6 shell pairs
          la=4 lb=0:     10 shell pairs
          la=4 lb=1:     10 shell pairs
          la=4 lb=2:      8 shell pairs
          la=4 lb=3:      6 shell pairs
          la=4 lb=4:      3 shell pairs

Calculating one electron integrals          ... done (  0.0 sec)
Calculating ECP integrals                   ... done (  0.0 sec)
Calculating Nuclear repulsion               ... done (  0.0 sec) ENN=      0.000000000000 Eh

SHARK setup successfully completed in   0.2 seconds

Maximum memory used throughout the entire GTOINT-calculation: 33.5 MB


           ************************************************************
           *        Program running with 4 parallel MPI-processes     *
           *              working on a common directory               *
           ************************************************************
-------------------------------------------------------------------------------
                                 ORCA SCF
-------------------------------------------------------------------------------

------------
SCF SETTINGS
------------
Hamiltonian:
 Ab initio Hamiltonian  Method          .... Hartree-Fock(GTOs)


General Settings:
 Integral files         IntName         .... mol
 Hartree-Fock type      HFTyp           .... ROHF
 Total Charge           Charge          ....    0
 Multiplicity           Mult            ....    3
 Number of Electrons    NEL             ....    4
 Basis Dimension        Dim             ....   79
 Nuclear Repulsion      ENuc            ....      0.0000000000 Eh

 Symmetry handling      UseSym         .... ON
 Point group                           .... D2h
 Used point group                      .... D2h
 Number of irreps                      .... 8
   Irrep   Ag has   19 symmetry adapted basis functions (ofs=   0)
   Irrep  B1g has    8 symmetry adapted basis functions (ofs=  19)
   Irrep  B2g has    8 symmetry adapted basis functions (ofs=  27)
   Irrep  B3g has    8 symmetry adapted basis functions (ofs=  35)
   Irrep   Au has    3 symmetry adapted basis functions (ofs=  43)
   Irrep  B1u has   11 symmetry adapted basis functions (ofs=  46)
   Irrep  B2u has   11 symmetry adapted basis functions (ofs=  57)
   Irrep  B3u has   11 symmetry adapted basis functions (ofs=  68)

Convergence Acceleration:
 DIIS                   CNVDIIS         .... on
   Start iteration      DIISMaxIt       ....    12
   Startup error        DIISStart       ....  0.200000
   # of expansion vecs  DIISMaxEq       ....     5
   Bias factor          DIISBfac        ....   1.050
   Max. coefficient     DIISMaxC        ....  10.000
 Trust-Rad. Augm. Hess. CNVTRAH         .... off
 SOSCF                  CNVSOSCF        .... off
 Level Shifting         CNVShift        .... on
   Level shift para.    LevelShift      ....    0.2500
   Turn off err/grad.   ShiftErr        ....    0.0010
 Zerner damping         CNVZerner       .... off
 Static damping         CNVDamp         .... on
   Fraction old density DampFac         ....    0.7000
   Max. Damping (<1)    DampMax         ....    0.9800
   Min. Damping (>=0)   DampMin         ....    0.0000
   Turn off err/grad.   DampErr         ....    0.1000
 Fernandez-Rico         CNVRico         .... off

SCF Procedure:
 Maximum # iterations   MaxIter         ....   125
 SCF integral mode      SCFMode         .... Direct
   Integral package                     .... SHARK and LIBINT hybrid scheme
 Reset frequency        DirectResetFreq ....    20
 Integral Threshold     Thresh          ....  1.000e-12 Eh
 Primitive CutOff       TCut            ....  1.000e-14 Eh

Convergence Tolerance:
 Convergence Check Mode ConvCheckMode   .... Total+1el-Energy
 Convergence forced     ConvForced      .... 0
 Energy Change          TolE            ....  1.000e-09 Eh
 1-El. energy change                    ....  1.000e-06 Eh
 DIIS Error             TolErr          ....  1.000e-08


Diagonalization of the overlap matrix:
Smallest eigenvalue                        ... 3.440e-03
Time for diagonalization                   ...    0.001 sec
Threshold for overlap eigenvalues          ... 1.000e-08
Number of eigenvalues below threshold      ... 0
Time for construction of square roots      ...    0.001 sec
Producing symmetrization matrix            ... done (   0.000 sec)
Total time needed                          ...    0.003 sec

--------------------
INITIAL GUESS: HCORE
--------------------
Diagonalizing the Hamiltonian                      ... done
Diagonalizing the Hamiltonian                      ... done
Back transforming the eigenvectors                 ... done
AVERAGE-CONFIGURATION (SAHF) CASE FOUND

-------------------
FINAL ROHF SETTINGS
-------------------
Number of operators             ... 2
  operator   0:   1 orbitals   2 electrons n(mue)= 2.000
  operator   1:   3 orbitals   2 electrons n(mue)= 0.667
Vector coupling coefficients a and b (Zerner convention):
   1.000    1.000           1.000    1.000 
   1.000    0.750           1.000    1.500 

Occupation of irreps:
Operator 0
    Ag occ= 1
   B1g occ= 0
   B2g occ= 0
   B3g occ= 0
    Au occ= 0
   B1u occ= 0
   B2u occ= 0
   B3u occ= 0
Operator 1
    Ag occ= 0
   B1g occ= 0
   B2g occ= 0
   B3g occ= 0
    Au occ= 0
   B1u occ= 1
   B2u occ= 1
   B3u occ= 1

                      -----------------
                      INTIAL GUESS DONE 
                      -----------------
--------------
SCF ITERATIONS
--------------
ITER       Energy         Delta-E        Max-DP      RMS-DP      [F,P]     Damp
               ***  Starting incremental Fock matrix formation  ***
  0     -4.8710567284   0.000000000000 0.74224711  0.01449825  0.3356282 0.7000
                            ****Activating DIIS****
  1     -4.7461311693   0.124925559101 1.68491813  0.03156066  0.0333196 0.0000
  2     -4.5349720803   0.211159089003 0.00844818  0.00018136  0.0913950 0.0000
  3     -4.5406022685  -0.005630188182 0.00475171  0.00010127  0.0900369 0.0000
  4     -4.5374783449   0.003123923552 0.00046233  0.00000992  0.0907734 0.0000
  5     -4.5377863509  -0.000308005981 0.00990245  0.00021062  0.0906991 0.0000
  6     -4.5312557608   0.006530590169 1.27182058  0.02862445  0.0922659 0.0000
  7     -5.2530727727  -0.721817011937 0.04782138  0.00070704  0.1209439 0.7000
  8     -5.2731774799  -0.020104707229 0.21192136  0.00369555  0.0693162 0.0000
  9     -5.3026148711  -0.029437391157 0.09682256  0.00215944  0.0450070 0.0000
 10     -5.3137544244  -0.011139553296 0.04655302  0.00100907  0.0115527 0.0000
 11     -5.3157154605  -0.001961036143 0.01366802  0.00032006  0.0036831 0.0000
 12     -5.3160129295  -0.000297468965 0.01513126  0.00034335  0.0020862 0.0000
 13     -5.3161684331  -0.000155503638 0.00561911  0.00012468  0.0007576 0.0000
 14     -5.3161850534  -0.000016620317 0.00124723  0.00002718  0.0004839 0.0000
 15     -5.3161865371  -0.000001483709 0.00049483  0.00001140  0.0001141 0.0000
 16     -5.3161869528  -0.000000415666 0.00047127  0.00000998  0.0000571 0.0000
 17     -5.3161871147  -0.000000161902 0.00019955  0.00000418  0.0000205 0.0000
 18     -5.3161871345  -0.000000019772 0.00005856  0.00000094  0.0000134 0.0000
 19     -5.3161871354  -0.000000000915 0.00002179  0.00000034  0.0000039 0.0000
               *** Restarting incremental Fock matrix formation ***
                                   *** Resetting DIIS ***
                 **** Energy Check signals convergence ****

               *****************************************************
               *                     SUCCESS                       *
               *           SCF CONVERGED AFTER  20 CYCLES          *
               *****************************************************


----------------
TOTAL SCF ENERGY
----------------

Total Energy       :           -5.31618714 Eh            -144.66081 eV

Components:
Nuclear Repulsion  :            0.00000000 Eh               0.00000 eV
Electronic Energy  :           -5.31618714 Eh            -144.66081 eV
One Electron Energy:           -8.35345973 Eh            -227.30920 eV
Two Electron Energy:            3.03727259 Eh              82.64839 eV

Virial components:
Potential Energy   :           -8.62972244 Eh            -234.82669 eV
Kinetic Energy     :            3.31353531 Eh              90.16588 eV
Virial Ratio       :            2.60438524


---------------
SCF CONVERGENCE
---------------

  Last Energy change         ...   -7.5623e-11  Tolerance :   1.0000e-09
  Last MAX-Density change    ...    3.3111e-06  Tolerance :   1.0000e-08
  Last RMS-Density change    ...    6.0939e-08  Tolerance :   1.0000e-09
  Last DIIS Error            ...    8.4688e-07  Tolerance :   1.0000e-08

             **** THE GBW FILE WAS UPDATED (mol.gbw) ****
             **** DENSITY mol.scfp WAS UPDATED ****
             **** ENERGY FILE WAS UPDATED (mol.en.tmp) ****
             **** THE GBW FILE WAS UPDATED (mol.gbw) ****
             **** DENSITY mol.scfp WAS UPDATED ****
----------------
ORBITAL ENERGIES
----------------

  NO   OCC          E(Eh)            E(eV)    Irrep 
   0   2.0000      -0.706212       -19.2170    1-Ag
   1   0.6667      -0.433245       -11.7892    1-B3u
   2   0.6667      -0.433245       -11.7892    1-B2u
   3   0.6667      -0.433245       -11.7892    1-B1u
   4   0.0000       0.008353         0.2273    2-B3u
   5   0.0000       0.008353         0.2273    2-B2u
   6   0.0000       0.008353         0.2273    2-B1u
   7   0.0000      -0.009197        -0.2503    2-Ag
   8   0.0000       0.133207         3.6247    1-B3g
   9   0.0000       0.133207         3.6247    3-Ag
  10   0.0000       0.133207         3.6247    1-B2g
  11   0.0000       0.133207         3.6247    1-B1g
  12   0.0000       0.133207         3.6247    4-Ag
  13   0.0000       0.297452         8.0941    3-B2u
  14   0.0000       0.297452         8.0941    3-B3u
  15   0.0000       0.297452         8.0941    3-B1u
  16   0.0000       0.388373        10.5682    5-Ag
  17   0.0000       0.601669        16.3723    4-B2u
  18   0.0000       0.601669        16.3723    4-B3u
  19   0.0000       0.601669        16.3723    5-B3u
  20   0.0000       0.601669        16.3723    4-B1u
  21   0.0000       0.601669        16.3723    5-B1u
  22   0.0000       0.601669        16.3723    1-Au
  23   0.0000       0.601669        16.3723    5-B2u
  24   0.0000       0.616635        16.7795    2-B3g
  25   0.0000       0.616635        16.7795    6-Ag
  26   0.0000       0.616635        16.7795    2-B2g
  27   0.0000       0.616635        16.7795    2-B1g
  28   0.0000       0.616635        16.7795    7-Ag
  29   0.0000       1.327165        36.1140    6-B2u
  30   0.0000       1.327165        36.1140    6-B1u
  31   0.0000       1.327165        36.1140    6-B3u
  32   0.0000       1.875667        51.0395    3-B2g
  33   0.0000       1.875667        51.0395    8-Ag
  34   0.0000       1.875667        51.0395    3-B1g
  35   0.0000       1.875667        51.0395    9-Ag
  36   0.0000       1.875667        51.0395    3-B3g
  37   0.0000       1.875667        51.0395   10-Ag
  38   0.0000       1.875667        51.0395    4-B1g
  39   0.0000       1.875667        51.0395    4-B2g
  40   0.0000       1.875667        51.0395    4-B3g
  41   0.0000       2.026459        55.1428    7-B3u
  42   0.0000       2.026459        55.1428    7-B1u
  43   0.0000       2.026459        55.1428    7-B2u
  44   0.0000       2.026459        55.1428    8-B2u
  45   0.0000       2.026459        55.1428    8-B3u
  46   0.0000       2.026459        55.1428    2-Au
  47   0.0000       2.026459        55.1428    8-B1u
  48   0.0000       2.019696        54.9587    5-B2g
  49   0.0000       2.019696        54.9587    5-B1g
  50   0.0000       2.019696        54.9587   11-Ag
  51   0.0000       2.019696        54.9587   12-Ag
  52   0.0000       2.019696        54.9587    5-B3g
  53   0.0000       2.030682        55.2577   13-Ag
  54   0.0000       5.255162       143.0002    9-B1u
  55   0.0000       5.255162       143.0002    9-B3u
  56   0.0000       5.255162       143.0002    9-B2u
  57   0.0000       5.594708       152.2397   14-Ag
  58   0.0000       5.594708       152.2397   15-Ag
  59   0.0000       5.594708       152.2397    6-B2g
  60   0.0000       5.594708       152.2397    6-B3g
  61   0.0000       5.594708       152.2397    6-B1g
  62   0.0000       5.594708       152.2397    7-B2g
  63   0.0000       5.594708       152.2397    7-B3g
  64   0.0000       5.594708       152.2397   16-Ag
  65   0.0000       5.594708       152.2397    7-B1g
  66   0.0000       5.982198       162.7839   10-B3u
  67   0.0000       5.982198       162.7839   10-B2u
  68   0.0000       5.982198       162.7839   10-B1u
  69   0.0000       5.982198       162.7839   11-B3u
  70   0.0000       5.982198       162.7839   11-B2u
  71   0.0000       5.982198       162.7839    3-Au
  72   0.0000       5.982198       162.7839   11-B1u
  73   0.0000       6.231704       169.5733    8-B2g
  74   0.0000       6.231704       169.5733   17-Ag
  75   0.0000       6.231704       169.5733    8-B1g
  76   0.0000       6.231704       169.5733   18-Ag
  77   0.0000       6.231704       169.5733    8-B3g
  78   0.0000       9.091608       247.3952   19-Ag

                    ********************************
                    * MULLIKEN POPULATION ANALYSIS *
                    ********************************

--------------------------------------------
MULLIKEN ATOMIC CHARGES AND SPIN POPULATIONS
--------------------------------------------
   0 C :   -0.000000    2.000000
Sum of atomic charges         :   -0.0000000
Sum of atomic spin populations:    2.0000000

-----------------------------------------------------
MULLIKEN REDUCED ORBITAL CHARGES AND SPIN POPULATIONS
-----------------------------------------------------
CHARGE
  0 C s       :     2.000000  s :     2.000000
      pz      :     0.666667  p :     2.000000
      px      :     0.666667
      py      :     0.666667
      dz2     :     0.000000  d :     0.000000
      dxz     :     0.000000
      dyz     :     0.000000
      dx2y2   :     0.000000
      dxy     :     0.000000
      f0      :     0.000000  f :     0.000000
      f+1     :     0.000000
      f-1     :     0.000000
      f+2     :     0.000000
      f-2     :     0.000000
      f+3     :     0.000000
      f-3     :     0.000000
      g0      :     0.000000  g :     0.000000
      g+1     :     0.000000
      g-1     :     0.000000
      g+2     :     0.000000
      g-2     :     0.000000
      g+3     :     0.000000
      g-3     :     0.000000
      g+4     :     0.000000
      g-4     :     0.000000

SPIN
  0 C s       :     0.000000  s :     0.000000
      pz      :     0.666667  p :     2.000000
      px      :     0.666667
      py      :     0.666667
      dz2     :     0.000000  d :     0.000000
      dxz     :     0.000000
      dyz     :     0.000000
      dx2y2   :     0.000000
      dxy     :     0.000000
      f0      :     0.000000  f :     0.000000
      f+1     :     0.000000
      f-1     :     0.000000
      f+2     :     0.000000
      f-2     :     0.000000
      f+3     :     0.000000
      f-3     :     0.000000
      g0      :     0.000000  g :     0.000000
      g+1     :     0.000000
      g-1     :     0.000000
      g+2     :     0.000000
      g-2     :     0.000000
      g+3     :     0.000000
      g-3     :     0.000000
      g+4     :     0.000000
      g-4     :     0.000000


                     *******************************
                     * LOEWDIN POPULATION ANALYSIS *
                     *******************************

-------------------------------------------
LOEWDIN ATOMIC CHARGES AND SPIN POPULATIONS
-------------------------------------------
   0 C :   -0.000000    2.000000

----------------------------------------------------
LOEWDIN REDUCED ORBITAL CHARGES AND SPIN POPULATIONS
----------------------------------------------------
CHARGE
  0 C s       :     2.000000  s :     2.000000
      pz      :     0.666667  p :     2.000000
      px      :     0.666667
      py      :     0.666667
      dz2     :     0.000000  d :     0.000000
      dxz     :     0.000000
      dyz     :     0.000000
      dx2y2   :     0.000000
      dxy     :     0.000000
      f0      :     0.000000  f :     0.000000
      f+1     :     0.000000
      f-1     :     0.000000
      f+2     :     0.000000
      f-2     :     0.000000
      f+3     :     0.000000
      f-3     :     0.000000
      g0      :     0.000000  g :     0.000000
      g+1     :     0.000000
      g-1     :     0.000000
      g+2     :     0.000000
      g-2     :     0.000000
      g+3     :     0.000000
      g-3     :     0.000000
      g+4     :     0.000000
      g-4     :     0.000000

SPIN
  0 C s       :     0.000000  s :     0.000000
      pz      :     0.666667  p :     2.000000
      px      :     0.666667
      py      :     0.666667
      dz2     :     0.000000  d :     0.000000
      dxz     :     0.000000
      dyz     :     0.000000
      dx2y2   :     0.000000
      dxy     :     0.000000
      f0      :     0.000000  f :     0.000000
      f+1     :     0.000000
      f-1     :     0.000000
      f+2     :     0.000000
      f-2     :     0.000000
      f+3     :     0.000000
      f-3     :     0.000000
      g0      :     0.000000  g :     0.000000
      g+1     :     0.000000
      g-1     :     0.000000
      g+2     :     0.000000
      g-2     :     0.000000
      g+3     :     0.000000
      g-3     :     0.000000
      g+4     :     0.000000
      g-4     :     0.000000


                      *****************************
                      * MAYER POPULATION ANALYSIS *
                      *****************************

  NA   - Mulliken gross atomic population
  ZA   - Total nuclear charge
  QA   - Mulliken gross atomic charge
  VA   - Mayer's total valence
  BVA  - Mayer's bonded valence
  FA   - Mayer's free valence

  ATOM       NA         ZA         QA         VA         BVA        FA
  0 C      4.0000     4.0000    -0.0000     2.6667     0.0000     2.6667

  Mayer bond orders larger than 0.100000



Warning: MO coefficients are modified such that the real solid harmonic m components
have the correct order within each shell (0, +1, -1, +2, -2, ...) and all s orbitals
come before all p orbitals etc. (with increasing orbital energy within each block of given angular momentum).

--------------------------
ATOM BASIS FOR ELEMENT C 
--------------------------
 NewGTO C 
 S 14
    1         31.367780000000        -0.002414944989
    2         19.537840000000         0.018700830217
    3         12.191260000000        -0.078302792062
    4          7.615200000000         0.201208098740
    5          4.758170000000        -0.229266840790
    6          1.922630000000        -0.088907159360
    7          1.195500000000         0.094041916152
    8          0.510500000000         0.403072910583
    9          0.218000000000         0.501360971732
   10          0.093100000000         0.172072826990
   11          0.841600000000        -0.000285298172
   12          0.313200000000         0.001363384689
   13          0.116500000000        -0.001635188019
   14          0.048300000000         0.001195722042
 S 14
    1         31.367780000000        -0.000913175595
    2         19.537840000000         0.007071441309
    3         12.191260000000        -0.029609038315
    4          7.615200000000         0.076083855350
    5          4.758170000000        -0.086693852089
    6          1.922630000000        -0.033618922373
    7          1.195500000000         0.035560554422
    8          0.510500000000         0.152416037011
    9          0.218000000000         0.189582208124
   10          0.093100000000         0.065066784888
   11          0.841600000000         0.095950102438
   12          0.313200000000        -0.477022901355
   13          0.116500000000         1.505329214274
   14          0.048300000000        -2.023314404497
 S 14
    1         31.367780000000        -0.000613094540
    2         19.537840000000         0.004747676222
    3         12.191260000000        -0.019879133690
    4          7.615200000000         0.051081737815
    5          4.758170000000        -0.058205155380
    6          1.922630000000        -0.022571319111
    7          1.195500000000         0.023874906301
    8          0.510500000000         0.102330198773
    9          0.218000000000         0.127283095805
   10          0.093100000000         0.043685016103
   11          0.841600000000        -0.398046977091
   12          0.313200000000         2.592053102021
   13          0.116500000000        -4.068741313249
   14          0.048300000000         1.781208202209
 S 14
    1         31.367780000000        -0.009686299402
    2         19.537840000000         0.075008681916
    3         12.191260000000        -0.314071041489
    4          7.615200000000         0.807041938899
    5          4.758170000000        -0.919585030997
    6          1.922630000000        -0.356604961337
    7          1.195500000000         0.377200375256
    8          0.510500000000         1.616717941833
    9          0.218000000000         2.010949525639
   10          0.093100000000         0.690180906216
   11          0.841600000000         2.498225602172
   12          0.313200000000        -6.757573863314
   13          0.116500000000         1.475957234861
   14          0.048300000000        -0.931071452981
 S 14
    1         31.367780000000        -0.028894352186
    2         19.537840000000         0.223751835699
    3         12.191260000000        -0.936877842384
    4          7.615200000000         2.407416191079
    5          4.758170000000        -2.743133641500
    6          1.922630000000        -1.063757056930
    7          1.195500000000         1.125193434074
    8          0.510500000000         4.822689828097
    9          0.218000000000         5.998687570154
   10          0.093100000000         2.058818269921
   11          0.841600000000        -0.198770972934
   12          0.313200000000        -9.255478668993
   13          0.116500000000        -2.658506451193
   14          0.048300000000        -0.409398025463
 P 14
    1         23.871530000000        -0.000983417851
    2         14.921780000000         0.007132030375
    3          9.324360000000        -0.031104216076
    4          5.829530000000         0.062427525243
    5          3.159450000000         0.055437555229
    6          1.974900000000         0.028576141905
    7          1.232300000000         0.203615515540
    8          0.508000000000         0.369368943608
    9          0.209400000000         0.366717817153
   10          0.086300000000         0.168222477158
   11          0.777000000000        -0.000848971840
   12          0.284100000000         0.002046644609
   13          0.103900000000        -0.004890768155
   14          0.034000000000         0.005378273135
 P 14
    1         23.871530000000        -0.000142478718
    2         14.921780000000         0.001033296824
    3          9.324360000000        -0.004506414864
    4          5.829530000000         0.009044572189
    5          3.159450000000         0.008031857234
    6          1.974900000000         0.004140144549
    7          1.232300000000         0.029500051809
    8          0.508000000000         0.053514600517
    9          0.209400000000         0.053130502245
   10          0.086300000000         0.024372267401
   11          0.777000000000         0.047093257258
   12          0.284100000000        -0.121622383999
   13          0.103900000000         0.541989326663
   14          0.034000000000        -1.298804967306
 P 14
    1         23.871530000000        -0.000745013594
    2         14.921780000000         0.005403053825
    3          9.324360000000        -0.023563802285
    4          5.829530000000         0.047293584200
    5          3.159450000000         0.041998151870
    6          1.974900000000         0.021648594399
    7          1.232300000000         0.154254193021
    8          0.508000000000         0.279824983730
    9          0.209400000000         0.277816554407
   10          0.086300000000         0.127441282621
   11          0.777000000000        -0.225192589986
   12          0.284100000000         0.767031300210
   13          0.103900000000        -2.188026559632
   14          0.034000000000         0.803707225577
 P 14
    1         23.871530000000        -0.000941730577
    2         14.921780000000         0.006829702224
    3          9.324360000000        -0.029785702320
    4          5.829530000000         0.059781210332
    5          3.159450000000         0.053087546503
    6          1.974900000000         0.027364793704
    7          1.232300000000         0.194984214319
    8          0.508000000000         0.353711322402
    9          0.209400000000         0.351172577713
   10          0.086300000000         0.161091493704
   11          0.777000000000         1.067417638449
   12          0.284100000000        -2.682813279874
   13          0.103900000000         1.062163599574
   14          0.034000000000        -0.394963523437
 P 14
    1         23.871530000000        -0.008156488363
    2         14.921780000000         0.059153210111
    3          9.324360000000        -0.257979023081
    4          5.829530000000         0.517775208881
    5          3.159450000000         0.459800250395
    6          1.974900000000         0.237011122682
    7          1.232300000000         1.688791373347
    8          0.508000000000         3.063553795952
    9          0.209400000000         3.041565297314
   10          0.086300000000         1.395240767752
   11          0.777000000000        -4.842576809158
   12          0.284100000000        -2.323758535611
   13          0.103900000000        -2.688655113135
   14          0.034000000000         0.128328095191
 D 4
    1          1.893000000000        -0.009443175905
    2          0.667900000000         0.070218621345
    3          0.235700000000        -0.196954927029
    4          0.078500000000         1.099193866583
 D 4
    1          1.893000000000         0.060047251670
    2          0.667900000000        -0.141579737249
    3          0.235700000000         1.343332618639
    4          0.078500000000        -0.672357778664
 D 4
    1          1.893000000000        -0.070495013134
    2          0.667900000000         1.428207140586
    3          0.235700000000        -1.073894177035
    4          0.078500000000         0.355418366486
 D 4
    1          1.893000000000         1.396349213651
    2          0.667900000000        -1.197174619943
    3          0.235700000000         0.559544006781
    4          0.078500000000        -0.173750377151
 F 3
    1          1.363200000000         0.043746037553
    2          0.479500000000        -0.218362295690
    3          0.182100000000         1.113621722405
 F 3
    1          1.363200000000        -0.123519484855
    2          0.479500000000         1.322916576561
    3          0.182100000000        -0.627632287569
 F 3
    1          1.363200000000         1.251384341213
    2          0.479500000000        -0.797643826336
    3          0.182100000000         0.286629998424
 G 2
    1          1.005900000000         0.183312382814
    2          0.408300000000        -1.095556039006
 G 2
    1          1.005900000000         1.216209273810
    2          0.408300000000        -0.559039705917
 end
-------------------------------------------
RADIAL EXPECTATION VALUES <R**-3> TO <R**3>
-------------------------------------------
   0 :     0.000000     0.812621     0.774858     1.594643     3.054300     6.905934
   1 :     0.000000     0.084827     0.226195     5.163731    28.686930   168.421535
   2 :     0.000000     0.338352     0.420192     3.503335    15.787383    85.471278
   3 :     0.000000     1.313100     0.872152     1.870827     5.491441    23.293704
   4 :     0.000000    10.678131     2.494364     0.697620     1.026692     3.120520
   5 :     1.389940     0.846647     0.776519     1.716296     3.752220    10.064899
   6 :     1.389940     0.846647     0.776519     1.716296     3.752220    10.064899
   7 :     1.389940     0.846647     0.776519     1.716296     3.752220    10.064899
   8 :     0.044253     0.048229     0.171537     6.655489    47.261790   353.763143
   9 :     0.044253     0.048229     0.171537     6.655489    47.261790   353.763143
  10 :     0.044253     0.048229     0.171537     6.655489    47.261790   353.763143
  11 :     0.473762     0.290315     0.377138     3.995472    20.346229   125.763333
  12 :     0.473762     0.290315     0.377138     3.995472    20.346229   125.763333
  13 :     0.473762     0.290315     0.377138     3.995472    20.346229   125.763333
  14 :     1.850452     0.956890     0.761888     2.172852     7.262420    34.980522
  15 :     1.850452     0.956890     0.761888     2.172852     7.262420    34.980522
  16 :     1.850452     0.956890     0.761888     2.172852     7.262420    34.980522
  17 :    10.165060     3.353666     1.516098     1.115275     2.310119     8.515843
  18 :    10.165060     3.353666     1.516098     1.115275     2.310119     8.515843
  19 :    10.165060     3.353666     1.516098     1.115275     2.310119     8.515843
  20 :     0.014901     0.054231     0.223099     4.796647    24.384459   652.943778
  21 :     0.014901     0.054231     0.223099     4.796647    24.384459   652.943778
  22 :     0.014901     0.054231     0.223099     4.796647    24.384459   652.943778
  23 :     0.014901     0.054231     0.223099     4.796647    24.384459   652.943778
  24 :     0.014901     0.054231     0.223099     4.796647    24.384459   652.943778
  25 :     0.101675     0.184189     0.398123     2.961918    10.636376   232.526168
  26 :     0.101675     0.184189     0.398123     2.961918    10.636376   232.526168
  27 :     0.101675     0.184189     0.398123     2.961918    10.636376   232.526168
  28 :     0.101675     0.184189     0.398123     2.961918    10.636376   232.526168
  29 :     0.101675     0.184189     0.398123     2.961918    10.636376   232.526168
  30 :     0.449864     0.508879     0.658803     1.890196     4.782592    82.819536
  31 :     0.449864     0.508879     0.658803     1.890196     4.782592    82.819536
  32 :     0.449864     0.508879     0.658803     1.890196     4.782592    82.819536
  33 :     0.449864     0.508879     0.658803     1.890196     4.782592    82.819536
  34 :     0.449864     0.508879     0.658803     1.890196     4.782592    82.819536
  35 :     2.462021     1.552780     1.139739     1.134535     1.877657    24.547472
  36 :     2.462021     1.552780     1.139739     1.134535     1.877657    24.547472
  37 :     2.462021     1.552780     1.139739     1.134535     1.877657    24.547472
  38 :     2.462021     1.552780     1.139739     1.134535     1.877657    24.547472
  39 :     2.462021     1.552780     1.139739     1.134535     1.877657    24.547472
  40 :     0.028873     0.088666     0.290225     3.606839    13.572905   372.099268
  41 :     0.028873     0.088666     0.290225     3.606839    13.572905   372.099268
  42 :     0.028873     0.088666     0.290225     3.606839    13.572905   372.099268
  43 :     0.028873     0.088666     0.290225     3.606839    13.572905   372.099268
  44 :     0.028873     0.088666     0.290225     3.606839    13.572905   372.099268
  45 :     0.028873     0.088666     0.290225     3.606839    13.572905   372.099268
  46 :     0.028873     0.088666     0.290225     3.606839    13.572905   372.099268
  47 :     0.145877     0.257447     0.487107     2.278208     5.927110   125.718756
  48 :     0.145877     0.257447     0.487107     2.278208     5.927110   125.718756
  49 :     0.145877     0.257447     0.487107     2.278208     5.927110   125.718756
  50 :     0.145877     0.257447     0.487107     2.278208     5.927110   125.718756
  51 :     0.145877     0.257447     0.487107     2.278208     5.927110   125.718756
  52 :     0.145877     0.257447     0.487107     2.278208     5.927110   125.718756
  53 :     0.145877     0.257447     0.487107     2.278208     5.927110   125.718756
  54 :     0.848526     0.810915     0.852761     1.360217     2.295975    35.846427
  55 :     0.848526     0.810915     0.852761     1.360217     2.295975    35.846427
  56 :     0.848526     0.810915     0.852761     1.360217     2.295975    35.846427
  57 :     0.848526     0.810915     0.852761     1.360217     2.295975    35.846427
  58 :     0.848526     0.810915     0.852761     1.360217     2.295975    35.846427
  59 :     0.848526     0.810915     0.852761     1.360217     2.295975    35.846427
  60 :     0.848526     0.810915     0.852761     1.360217     2.295975    35.846427
  61 :     0.067437     0.159337     0.391656     2.648510     7.266339   144.358610
  62 :     0.067437     0.159337     0.391656     2.648510     7.266339   144.358610
  63 :     0.067437     0.159337     0.391656     2.648510     7.266339   144.358610
  64 :     0.067437     0.159337     0.391656     2.648510     7.266339   144.358610
  65 :     0.067437     0.159337     0.391656     2.648510     7.266339   144.358610
  66 :     0.067437     0.159337     0.391656     2.648510     7.266339   144.358610
  67 :     0.067437     0.159337     0.391656     2.648510     7.266339   144.358610
  68 :     0.067437     0.159337     0.391656     2.648510     7.266339   144.358610
  69 :     0.067437     0.159337     0.391656     2.648510     7.266339   144.358610
  70 :     0.357639     0.469196     0.659784     1.657460     3.069797    45.365119
  71 :     0.357639     0.469196     0.659784     1.657460     3.069797    45.365119
  72 :     0.357639     0.469196     0.659784     1.657460     3.069797    45.365119
  73 :     0.357639     0.469196     0.659784     1.657460     3.069797    45.365119
  74 :     0.357639     0.469196     0.659784     1.657460     3.069797    45.365119
  75 :     0.357639     0.469196     0.659784     1.657460     3.069797    45.365119
  76 :     0.357639     0.469196     0.659784     1.657460     3.069797    45.365119
  77 :     0.357639     0.469196     0.659784     1.657460     3.069797    45.365119
  78 :     0.357639     0.469196     0.659784     1.657460     3.069797    45.365119
-------
TIMINGS
-------

Total SCF time: 0 days 0 hours 0 min 1 sec 

Total time                  ....       1.187 sec
Sum of individual times     ....       0.995 sec  ( 83.9%)

Fock matrix formation       ....       0.950 sec  ( 80.1%)
Diagonalization             ....       0.020 sec  (  1.7%)
Density matrix formation    ....       0.001 sec  (  0.1%)
Population analysis         ....       0.003 sec  (  0.2%)
Initial guess               ....       0.001 sec  (  0.1%)
Orbital Transformation      ....       0.000 sec  (  0.0%)
Orbital Orthonormalization  ....       0.000 sec  (  0.0%)
DIIS solution               ....       0.021 sec  (  1.7%)

Maximum memory used throughout the entire SCF-calculation: 228.3 MB

-------------------------   --------------------
FINAL SINGLE POINT ENERGY        -5.316187135481
-------------------------   --------------------


                            ***************************************
                            *     ORCA property calculations      *
                            ***************************************

                                    ---------------------
                                    Active property flags
                                    ---------------------
   (+) Dipole Moment


------------------------------------------------------------------------------
                       ORCA ELECTRIC PROPERTIES CALCULATION
------------------------------------------------------------------------------

Dipole Moment Calculation                       ... on
Quadrupole Moment Calculation                   ... off
Polarizability Calculation                      ... off
GBWName                                         ... mol.gbw
Electron density                                ... mol.scfp
The origin for moment calculation is the CENTER OF MASS  = ( 0.000000,  0.000000  0.000000)

-------------
DIPOLE MOMENT
-------------
                                X             Y             Z
Electronic contribution:      0.00000       0.00000       0.00000
Nuclear contribution   :      0.00000       0.00000       0.00000
                        -----------------------------------------
Total Dipole Moment    :      0.00000       0.00000       0.00000
                        -----------------------------------------
Magnitude (a.u.)       :      0.00000
Magnitude (Debye)      :      0.00000



--------------------
Rotational spectrum 
--------------------
 
Rotational constants in cm-1:     0.000000     0.000000     0.000000 
Rotational constants in MHz :     0.000000     0.000000     0.000000 

 Dipole components along the rotational axes: 
x,y,z [a.u.] :     0.000000     0.000000     0.000000 
x,y,z [Debye]:     0.000000     0.000000     0.000000 

 

Timings for individual modules:

Sum of individual times         ...        2.391 sec (=   0.040 min)
GTO integral calculation        ...        0.736 sec (=   0.012 min)  30.8 %
SCF iterations                  ...        1.655 sec (=   0.028 min)  69.2 %
                             ****ORCA TERMINATED NORMALLY****
TOTAL RUN TIME: 0 days 0 hours 0 minutes 3 seconds 44 msec
