[Molden Format]
[Atoms] (Angs)
  C      1    6     -0.23156663     -0.40139629      0.00000000
  O      2    8     -1.23145105      0.27789305     -0.00000000
  H      3    1     -0.30922657     -1.50540499      0.00000000
  C      4    6      1.16658028      0.14878812      0.00000000
  H      5    1      1.14763502      1.23599553     -0.00000000
  H      6    1      1.70155903     -0.21904296      0.87844032
  H      7    1      1.70155903     -0.21904296     -0.87844032
[GTO]
1    0
S    8    1.000000
   3.39800000E+04    9.20400000E-05 
   5.08900000E+03    6.99910000E-04 
   1.15700000E+03    3.69300000E-03 
   3.26600000E+02    1.51818100E-02 
   1.06100000E+02    5.21403500E-02 
   3.81100000E+01    1.38274510E-01 
   1.47500000E+01    2.68772030E-01 
   6.03500000E+00    2.28418390E-01 
S    8    1.000000
   3.39800000E+04    3.40000000E-07 
   5.08900000E+03   -1.35000000E-06 
   3.26600000E+02   -5.90100000E-05 
   1.06100000E+02   -2.61180000E-04 
   3.81100000E+01   -2.90391000E-03 
   1.47500000E+01   -1.22067500E-02 
   6.03500000E+00   -5.66064900E-02 
   2.53000000E+00   -7.18816800E-02 
S    1    1.000000
   7.35500000E-01    1.00000000E+00 
S    1    1.000000
   2.90500000E-01    1.00000000E+00 
S    1    1.000000
   1.11100000E-01    1.00000000E+00 
P    3    1.000000
   3.45100000E+01    5.37800000E-03 
   7.91500000E+00    3.61320000E-02 
   2.36800000E+00    1.42493000E-01 
P    1    1.000000
   8.13200000E-01    1.00000000E+00 
P    1    1.000000
   2.89000000E-01    1.00000000E+00 
P    1    1.000000
   1.00700000E-01    1.00000000E+00 
D    1    1.000000
   1.84800000E+00    1.00000000E+00 
D    1    1.000000
   6.49000000E-01    1.00000000E+00 
D    1    1.000000
   2.28000000E-01    1.00000000E+00 
F    1    1.000000
   1.41900000E+00    1.00000000E+00 
F    1    1.000000
   4.85000000E-01    1.00000000E+00 
G    1    1.000000
   1.01100000E+00    1.00000000E+00 

2    0
S    8    1.000000
   6.14200000E+04    9.15600000E-05 
   9.19900000E+03    6.97330000E-04 
   2.09100000E+03    3.67901000E-03 
   5.90900000E+02    1.50670600E-02 
   1.92300000E+02    5.16674200E-02 
   6.93200000E+01    1.35843520E-01 
   2.69700000E+01    2.60704420E-01 
   1.11000000E+01    1.96456920E-01 
S    8    1.000000
   6.14200000E+04    6.10000000E-07 
   9.19900000E+03   -1.80000000E-06 
   5.90900000E+02   -1.08610000E-04 
   1.92300000E+02   -4.94110000E-04 
   6.93200000E+01   -5.43605000E-03 
   2.69700000E+01   -2.33243000E-02 
   1.11000000E+01   -1.03719380E-01 
   4.68200000E+00   -1.10942760E-01 
S    1    1.000000
   1.42800000E+00    1.00000000E+00 
S    1    1.000000
   5.54700000E-01    1.00000000E+00 
S    1    1.000000
   2.06700000E-01    1.00000000E+00 
P    3    1.000000
   6.34200000E+01    6.04400000E-03 
   1.46600000E+01    4.17990000E-02 
   4.45900000E+00    1.61143000E-01 
P    1    1.000000
   1.53100000E+00    1.00000000E+00 
P    1    1.000000
   5.30200000E-01    1.00000000E+00 
P    1    1.000000
   1.75000000E-01    1.00000000E+00 
D    1    1.000000
   3.77500000E+00    1.00000000E+00 
D    1    1.000000
   1.30000000E+00    1.00000000E+00 
D    1    1.000000
   4.44000000E-01    1.00000000E+00 
F    1    1.000000
   2.66600000E+00    1.00000000E+00 
F    1    1.000000
   8.59000000E-01    1.00000000E+00 
G    1    1.000000
   1.84600000E+00    1.00000000E+00 

3    0
S    3    1.000000
   8.26400000E+01    2.00600000E-03 
   1.24100000E+01    1.53430000E-02 
   2.82400000E+00    7.55790000E-02 
S    1    1.000000
   7.97700000E-01    1.00000000E+00 
S    1    1.000000
   2.58100000E-01    1.00000000E+00 
S    1    1.000000
   8.98900000E-02    1.00000000E+00 
P    1    1.000000
   2.29200000E+00    1.00000000E+00 
P    1    1.000000
   8.38000000E-01    1.00000000E+00 
P    1    1.000000
   2.92000000E-01    1.00000000E+00 
D    1    1.000000
   2.06200000E+00    1.00000000E+00 
D    1    1.000000
   6.62000000E-01    1.00000000E+00 
F    1    1.000000
   1.39700000E+00    1.00000000E+00 

4    0
S    8    1.000000
   3.39800000E+04    9.20400000E-05 
   5.08900000E+03    6.99910000E-04 
   1.15700000E+03    3.69300000E-03 
   3.26600000E+02    1.51818100E-02 
   1.06100000E+02    5.21403500E-02 
   3.81100000E+01    1.38274510E-01 
   1.47500000E+01    2.68772030E-01 
   6.03500000E+00    2.28418390E-01 
S    8    1.000000
   3.39800000E+04    3.40000000E-07 
   5.08900000E+03   -1.35000000E-06 
   3.26600000E+02   -5.90100000E-05 
   1.06100000E+02   -2.61180000E-04 
   3.81100000E+01   -2.90391000E-03 
   1.47500000E+01   -1.22067500E-02 
   6.03500000E+00   -5.66064900E-02 
   2.53000000E+00   -7.18816800E-02 
S    1    1.000000
   7.35500000E-01    1.00000000E+00 
S    1    1.000000
   2.90500000E-01    1.00000000E+00 
S    1    1.000000
   1.11100000E-01    1.00000000E+00 
P    3    1.000000
   3.45100000E+01    5.37800000E-03 
   7.91500000E+00    3.61320000E-02 
   2.36800000E+00    1.42493000E-01 
P    1    1.000000
   8.13200000E-01    1.00000000E+00 
P    1    1.000000
   2.89000000E-01    1.00000000E+00 
P    1    1.000000
   1.00700000E-01    1.00000000E+00 
D    1    1.000000
   1.84800000E+00    1.00000000E+00 
D    1    1.000000
   6.49000000E-01    1.00000000E+00 
D    1    1.000000
   2.28000000E-01    1.00000000E+00 
F    1    1.000000
   1.41900000E+00    1.00000000E+00 
F    1    1.000000
   4.85000000E-01    1.00000000E+00 
G    1    1.000000
   1.01100000E+00    1.00000000E+00 

5    0
S    3    1.000000
   8.26400000E+01    2.00600000E-03 
   1.24100000E+01    1.53430000E-02 
   2.82400000E+00    7.55790000E-02 
S    1    1.000000
   7.97700000E-01    1.00000000E+00 
S    1    1.000000
   2.58100000E-01    1.00000000E+00 
S    1    1.000000
   8.98900000E-02    1.00000000E+00 
P    1    1.000000
   2.29200000E+00    1.00000000E+00 
P    1    1.000000
   8.38000000E-01    1.00000000E+00 
P    1    1.000000
   2.92000000E-01    1.00000000E+00 
D    1    1.000000
   2.06200000E+00    1.00000000E+00 
D    1    1.000000
   6.62000000E-01    1.00000000E+00 
F    1    1.000000
   1.39700000E+00    1.00000000E+00 

6    0
S    3    1.000000
   8.26400000E+01    2.00600000E-03 
   1.24100000E+01    1.53430000E-02 
   2.82400000E+00    7.55790000E-02 
S    1    1.000000
   7.97700000E-01    1.00000000E+00 
S    1    1.000000
   2.58100000E-01    1.00000000E+00 
S    1    1.000000
   8.98900000E-02    1.00000000E+00 
P    1    1.000000
   2.29200000E+00    1.00000000E+00 
P    1    1.000000
   8.38000000E-01    1.00000000E+00 
P    1    1.000000
   2.92000000E-01    1.00000000E+00 
D    1    1.000000
   2.06200000E+00    1.00000000E+00 
D    1    1.000000
   6.62000000E-01    1.00000000E+00 
F    1    1.000000
   1.39700000E+00    1.00000000E+00 

7    0
S    3    1.000000
   8.26400000E+01    2.00600000E-03 
   1.24100000E+01    1.53430000E-02 
   2.82400000E+00    7.55790000E-02 
S    1    1.000000
   7.97700000E-01    1.00000000E+00 
S    1    1.000000
   2.58100000E-01    1.00000000E+00 
S    1    1.000000
   8.98900000E-02    1.00000000E+00 
P    1    1.000000
   2.29200000E+00    1.00000000E+00 
P    1    1.000000
   8.38000000E-01    1.00000000E+00 
P    1    1.000000
   2.92000000E-01    1.00000000E+00 
D    1    1.000000
   2.06200000E+00    1.00000000E+00 
D    1    1.000000
   6.62000000E-01    1.00000000E+00 
F    1    1.000000
   1.39700000E+00    1.00000000E+00 

[MO]
Sym=X
Ene= -19.129506
Spin=Alpha
Occup=1
     1    1.583461386900e-04
     2    4.951645924983e-04
     3   -1.556693426827e-03
     4    1.559140241536e-02
     5    3.725986758275e-04
     6    2.820852600555e-04
     7   -2.084914862635e-04
     8    6.693192728384e-16
     9   -2.116796725231e-03
    10    1.473652107981e-03
    11   -5.736723467624e-16
    12   -9.080252311696e-03
    13    6.052225560903e-03
    14   -1.329118721041e-14
    15   -6.893476497358e-05
    16   -3.224411074705e-03
    17    2.955212720280e-16
    18    8.958612895382e-05
    19   -1.101207894149e-15
    20   -3.410454548249e-16
    21    2.131824242786e-06
    22    6.931361005878e-06
    23   -2.250072023070e-03
    24    5.822620099423e-15
    25    1.162955563682e-15
    26    1.209907113683e-03
    27   -3.176168560927e-03
    28   -1.721351801850e-03
    29   -5.977004533085e-15
    30    2.110882866919e-15
    31    2.084493679654e-03
    32   -5.801807041676e-03
    33    1.142230599757e-15
    34    8.738395687136e-05
    35   -3.178679114144e-05
    36   -1.882213484964e-16
    37    7.437909071101e-16
    38    1.453743530652e-05
    39    2.401790976801e-04
    40    4.164162146528e-15
    41    6.118359156221e-04
    42   -5.255235929079e-04
    43    1.876548237445e-15
    44    2.706704794379e-15
    45   -5.061189814208e-04
    46    1.408847285829e-03
    47   -7.080806869915e-05
    48   -1.355713078014e-15
    49   -4.761606830297e-16
    50    4.706465086287e-05
    51   -4.850320807326e-05
    52    6.853557452054e-16
    53   -2.033785663362e-15
    54    2.955928074960e-04
    55    3.422156082113e-04
    56    5.856955053970e-01
    57   -4.434675010654e-01
    58    3.486322889905e-02
    59   -2.522034352887e-02
    60   -4.410266594054e-03
    61    7.990555264159e-04
    62   -5.219221761968e-04
    63    9.359115188397e-18
    64    1.387486244745e-03
    65   -9.867736829165e-04
    66   -2.007753812305e-15
    67   -8.604882841007e-03
    68    6.229298856189e-03
    69    7.120843992516e-15
    70   -1.474361854500e-03
    71    1.903675977328e-03
    72   -2.242170551758e-15
    73   -1.963385938922e-04
    74    5.765085221045e-15
    75    3.839850012865e-14
    76    1.462049381240e-04
    77   -3.651776491781e-04
    78    5.949018099712e-04
    79   -1.162674626676e-15
    80   -1.440976119904e-14
    81   -3.355567611454e-04
    82    8.146602478159e-04
    83    1.309257207810e-03
    84    4.537957044998e-15
    85    3.872448155249e-15
    86   -6.321878446640e-04
    87    2.850420261972e-03
    88    3.999157765975e-16
    89   -5.420839891173e-05
    90    4.005497679425e-05
    91   -3.092945339849e-16
    92   -1.341256885817e-16
    93   -4.940204040317e-05
    94   -1.159309591184e-04
    95   -2.045698070034e-15
    96    5.010561838617e-04
    97   -3.590829882494e-04
    98    5.915261336944e-16
    99   -2.314544289320e-15
   100    3.053852916871e-04
   101    8.091069789879e-04
   102   -7.853880653001e-05
   103   -3.301433797875e-16
   104    7.316099579062e-16
   105    4.350278723873e-05
   106   -9.626656712498e-05
   107   -1.694726514033e-16
   108   -3.999955399696e-16
   109    7.377503149823e-05
   110    5.600878675445e-05
   111   -2.981467077317e-05
   112   -1.037950991893e-04
   113    3.167124195996e-04
   114   -1.653354184533e-03
   115    3.099944281630e-05
   116    1.991205227422e-05
   117   -1.096252311347e-15
   118   -4.757255328394e-04
   119   -2.787000761125e-04
   120    4.683764873022e-15
   121   -1.974068300624e-03
   122    1.642383642429e-04
   123    3.290252499751e-15
   124   -3.506092837915e-05
   125    1.891922203075e-17
   126   -3.832766249857e-16
   127    1.285940880840e-05
   128   -9.135729253388e-05
   129    1.095474253968e-04
   130    7.673650516421e-16
   131    4.488203171746e-15
   132   -2.159824818980e-05
   133   -6.533462667619e-04
   134   -6.770531762329e-16
   135   -3.312912488860e-05
   136   -1.989599238136e-05
   137   -9.659618278914e-16
   138    3.288693826779e-16
   139    2.162907729872e-04
   140   -4.282323351096e-05
   141    7.789584368071e-06
   142    2.755216295311e-05
   143    6.131815545474e-05
   144    2.811199336926e-03
   145    2.836808132900e-03
   146   -1.839220112202e-05
   147   -5.600087388814e-05
   148    9.006215983931e-16
   149    5.924611304590e-05
   150    4.759097460360e-04
   151   -5.564116020075e-15
   152    1.092323940246e-03
   153   -2.184200179225e-03
   154    2.303001967224e-14
   155   -8.971405974711e-04
   156    8.443113071945e-04
   157    2.732105194885e-15
   158   -3.286897896279e-05
   159   -2.170570631734e-16
   160    1.881131638602e-15
   161   -4.162490049816e-05
   162   -2.481640379070e-05
   163    2.108130540288e-04
   164   -2.771754383630e-16
   165   -1.414165381748e-14
   166   -1.964662812559e-04
   167    3.965138881059e-05
   168    2.646994911059e-03
   169   -1.549692728539e-15
   170   -2.835004154922e-14
   171    1.908859597444e-03
   172   -3.799689705147e-04
   173    3.232309490458e-16
   174    1.102577470157e-05
   175   -6.837652023220e-05
   176   -1.010943139910e-15
   177   -5.825405567270e-17
   178   -4.270835398706e-06
   179   -2.783749716178e-06
   180   -1.106521490646e-15
   181   -3.762907636936e-05
   182    1.642530209595e-04
   183   -6.518791820090e-15
   184   -9.817904681516e-15
   185   -2.618616768728e-04
   186    4.037261117559e-04
   187   -4.155284597580e-05
   188   -6.814574878239e-16
   189   -8.042255961660e-16
   190   -5.177204722036e-05
   191   -3.611557758298e-05
   192   -3.150887177854e-15
   193    1.715685417871e-16
   194    6.482212291343e-05
   195   -1.388915829572e-04
   196   -4.748451459616e-05
   197    6.321582916484e-04
   198    3.033184617920e-03
   199   -5.629533203594e-04
   200    6.727918327886e-05
   201   -5.446849538635e-05
   202    3.838753316956e-17
   203   -3.352240356019e-04
   204    4.345061020791e-06
   205   -1.186334123013e-15
   206   -3.177319160736e-04
   207   -5.398179302286e-04
   208    1.212482114798e-14
   209    1.806965201342e-05
   210   -5.555154411493e-16
   211    2.962948778066e-16
   212   -4.341485552203e-05
   213    4.538961586913e-05
   214   -1.951033654025e-05
   215    2.493199446233e-15
   216   -3.145151706010e-15
   217    3.556158593756e-04
   218    1.856875993020e-04
   219   -7.355867048017e-16
   220   -5.987222618597e-07
   221   -3.020272108148e-05
   222   -3.991384418887e-16
   223   -1.805849974067e-16
   224    4.721705552106e-05
   225   -7.381537162260e-05
   226    1.022221405115e-06
   227    8.640093597176e-05
   228   -3.532179777150e-03
   229    1.940146960757e-04
   230    9.457784918593e-07
   231    6.694214080738e-06
   232   -3.831649969478e-05
   233    2.672689474046e-05
   234   -1.622203145124e-05
   235    1.729281543056e-04
   236    1.064978580220e-03
   237   -7.804003747199e-04
   238    3.899283126870e-04
   239   -2.298554920384e-05
   240    1.278906391932e-06
   241   -7.736972051678e-06
   242    7.149252508822e-06
   243   -3.593013299325e-06
   244    6.795327879827e-05
   245   -1.126882194824e-04
   246    3.795515115457e-05
   247   -4.557784181018e-05
   248    4.860105231214e-05
   249   -1.268338712709e-05
   250    7.927076658504e-06
   251    6.181423393706e-06
   252    1.384411937897e-05
   253    1.591319097078e-05
   254   -2.414653715642e-05
   255   -1.414728084241e-06
   256    1.022221405440e-06
   257    8.640093598127e-05
   258   -3.532179777102e-03
   259    1.940146960703e-04
   260    9.457784928428e-07
   261    6.694214084549e-06
   262    3.831649969454e-05
   263    2.672689473163e-05
   264   -1.622203146310e-05
   265   -1.729281542987e-04
   266    1.064978580204e-03
   267   -7.804003747421e-04
   268   -3.899283126754e-04
   269   -2.298554920384e-05
   270   -1.278906392198e-06
   271    7.736972052133e-06
   272    7.149252508278e-06
   273   -3.593013300183e-06
   274    6.795327880320e-05
   275    1.126882194753e-04
   276   -3.795515116737e-05
   277   -4.557784180068e-05
   278    4.860105231844e-05
   279    1.268338712835e-05
   280    7.927076657618e-06
   281    6.181423390729e-06
   282   -1.384411937640e-05
   283   -1.591319096908e-05
   284   -2.414653715676e-05
   285   -1.414728083878e-06
Sym=X
Ene= -10.270126
Spin=Alpha
Occup=1
     1    6.263294802546e-01
     2   -3.998144295627e-01
     3    4.796693304750e-02
     4   -2.267501292538e-02
     5   -1.338833872281e-02
     6    3.297349476000e-04
     7    1.492115580475e-04
     8    1.092777565288e-14
     9   -2.890070431903e-03
    10   -2.679388832621e-04
    11    1.258070324683e-14
    12   -9.980951796457e-03
    13    1.883767010891e-03
    14    3.423251574955e-15
    15   -2.959087574633e-03
    16   -1.499736836642e-03
    17    4.226346990942e-15
    18   -9.251514066178e-04
    19   -1.130651786423e-14
    20    1.509421738864e-14
    21   -5.705661173415e-06
    22   -2.055963715431e-04
    23   -1.481388427982e-03
    24    7.373243717172e-15
    25   -9.693815661689e-15
    26   -7.100613620453e-04
    27   -2.873456234916e-03
    28    5.774420059835e-03
    29   -3.310006234523e-17
    30    1.307613308899e-14
    31   -6.359652379143e-04
    32    1.276614533450e-04
    33    6.551196600735e-16
    34    3.755565576147e-04
    35    8.226621987712e-05
    36    6.687770786943e-15
    37    2.211351297677e-15
    38    5.081672853455e-04
    39    1.907608296471e-03
    40   -3.966475879826e-15
    41    6.960155532469e-04
    42   -4.749431486346e-05
    43   -5.264875558724e-15
    44    3.780171300715e-15
    45   -1.728114818608e-03
    46   -2.906843457623e-03
    47    1.537956772817e-04
    48   -1.656710418046e-15
    49    6.163089015979e-16
    50   -8.739583268403e-07
    51    2.055516327781e-04
    52    2.047103932968e-17
    53    1.208559155818e-15
    54    3.278337914898e-05
    55   -2.579298457996e-04
    56   -2.842165263574e-05
    57    5.086729183627e-04
    58    2.960465815389e-03
    59   -2.937927380787e-03
    60    1.125143783914e-04
    61    4.143521469162e-06
    62    1.890064957544e-05
    63    2.287206795601e-16
    64    1.147530332118e-03
    65   -9.165779009811e-04
    66   -4.970824250545e-17
    67   -4.534648192670e-03
    68    4.047192879194e-03
    69    1.253270160516e-15
    70   -4.743576571926e-04
    71    9.401725124242e-04
    72   -4.835846171160e-15
    73   -2.791212098828e-04
    74   -3.088133001568e-16
    75   -3.750714499129e-16
    76    1.143629860118e-04
    77   -3.368278171059e-04
    78    8.556496637133e-04
    79    1.721057175091e-15
    80    2.955473050562e-16
    81   -2.948460180368e-04
    82    9.600756376690e-04
    83    2.022302333227e-03
    84   -2.138985752512e-15
    85   -1.952616666548e-15
    86   -8.437713293544e-04
    87    3.555043977814e-03
    88   -9.977059968696e-17
    89   -1.367240850259e-04
    90    7.722877015483e-05
    91    1.802235988884e-16
    92    7.559441490722e-18
    93   -2.582268318759e-05
    94   -1.116829570941e-04
    95    3.038371834238e-16
    96    1.412775339232e-03
    97   -9.336167006297e-04
    98   -1.957913348856e-17
    99    5.382362734278e-16
   100    4.439677817577e-04
   101    1.549970088036e-03
   102   -2.161615070093e-04
   103    3.254624408017e-16
   104   -4.415449577958e-16
   105    1.193355453628e-04
   106   -2.760229139127e-04
   107    6.238750730301e-16
   108    7.404926402228e-16
   109    2.508880778127e-04
   110    2.228232885747e-04
   111    5.685635648585e-04
   112    5.001889444551e-04
   113    5.865967412242e-03
   114    9.904176439332e-05
   115    7.495208906943e-05
   116    7.486028052332e-04
   117    1.059532127793e-15
   118   -4.297891019831e-04
   119   -2.650321182030e-03
   120   -5.201851668620e-15
   121    4.903730183203e-04
   122    1.054588258011e-03
   123    1.821515964232e-15
   124    1.640418442346e-04
   125   -2.099278747152e-16
   126    1.926112059334e-16
   127    2.132121460572e-04
   128   -5.413163283426e-05
   129    1.411894095690e-03
   130    4.166793295560e-17
   131   -3.819226502642e-15
   132    2.138679452174e-03
   133   -5.068668761174e-04
   134    3.651432468708e-16
   135    8.536873279021e-05
   136    7.439759413391e-04
   137    2.501594844309e-16
   138    6.537762922889e-17
   139    2.269052001240e-04
   140    7.140390725633e-04
   141    1.050222797589e-03
   142   -5.029442023349e-04
   143   -9.499511917893e-05
   144    3.210465318193e-03
   145    8.192167311624e-03
   146    1.328615180816e-04
   147    5.682714876257e-05
   148   -1.765178909555e-15
   149   -8.688734326697e-04
   150   -5.351355962087e-04
   151    6.827164752450e-15
   152   -1.037101866605e-02
   153   -4.565707775106e-03
   154    1.046412137945e-13
   155   -3.375763695198e-03
   156   -1.439413410919e-03
   157    1.513679553129e-14
   158   -9.806452864301e-05
   159   -1.576947601804e-15
   160   -7.948252245173e-16
   161    1.156261904199e-04
   162    3.000966674100e-05
   163   -4.033017594282e-04
   164    1.684626516993e-14
   165   -5.335712103540e-15
   166    7.970653609479e-04
   167    9.671578006666e-04
   168   -2.269637063950e-03
   169    3.817756736035e-14
   170   -3.406872583558e-14
   171   -4.572747817121e-04
   172    2.408765094254e-03
   173    5.216617577090e-16
   174    1.689874521917e-04
   175    1.474299616039e-04
   176    5.447866042020e-16
   177   -3.856706180274e-16
   178   -1.551726084070e-04
   179   -1.178476900713e-04
   180    1.488145535822e-14
   181   -1.199831602389e-03
   182   -6.734144459256e-04
   183   -1.724924575326e-15
   184   -3.522443685881e-15
   185    3.605619139555e-04
   186    3.547189633199e-04
   187   -1.853382497700e-04
   188    2.659500495262e-15
   189   -3.164244887432e-15
   190   -9.497997945486e-06
   191    3.090245014418e-04
   192    7.983630693798e-16
   193    1.222969627261e-15
   194    2.734804264363e-05
   195   -1.319590800362e-04
   196    6.553258548504e-06
   197   -2.667220259309e-04
   198    1.792303975942e-03
   199    6.114843215311e-04
   200   -1.444434576612e-04
   201    5.178904843157e-05
   202    7.931860040062e-16
   203    5.342994947440e-04
   204   -2.779194530224e-04
   205   -2.450757801620e-15
   206   -8.068088191236e-04
   207   -1.581607546281e-03
   208    1.199144342258e-14
   209   -2.516177438326e-06
   210    4.133611838643e-16
   211    5.168365286459e-16
   212    1.002170540928e-05
   213    9.593832220722e-07
   214   -5.164237906649e-05
   215   -1.645755582120e-15
   216   -1.312409312679e-15
   217   -3.790142719111e-04
   218   -6.332078382831e-05
   219    3.688212268823e-16
   220    5.793312897309e-05
   221   -2.092704570705e-05
   222    9.642072764825e-16
   223   -6.502507988874e-17
   224   -1.042284944634e-05
   225    6.521613941694e-05
   226   -2.456041292104e-05
   227    6.354181013527e-04
   228    2.723703846801e-03
   229    7.376991588091e-05
   230   -1.448052574065e-04
   231   -1.043678947935e-04
   232    2.140346271968e-06
   233    3.582829175188e-04
   234    5.581551981584e-04
   235   -2.930510996155e-04
   236    1.145254689791e-05
   237    8.094391032045e-04
   238   -9.023473798620e-04
   239   -3.920827864688e-06
   240    3.143808474372e-05
   241    1.863030691645e-05
   242    3.245462788511e-05
   243   -2.052428549268e-05
   244    2.065427646165e-04
   245   -8.367329921666e-05
   246   -1.704324275344e-04
   247   -4.033133759961e-04
   248   -1.677168479776e-04
   249   -3.617583460696e-05
   250   -4.498771084911e-05
   251   -6.397376265452e-05
   252   -7.093048909468e-06
   253    3.833853647799e-05
   254    9.469600562182e-05
   255   -2.460874574374e-05
   256   -2.456041292484e-05
   257    6.354181013771e-04
   258    2.723703847019e-03
   259    7.376991589028e-05
   260   -1.448052574022e-04
   261   -1.043678947960e-04
   262   -2.140346272661e-06
   263    3.582829174922e-04
   264    5.581551981746e-04
   265    2.930510996277e-04
   266    1.145254685770e-05
   267    8.094391032313e-04
   268    9.023473799215e-04
   269   -3.920827864283e-06
   270   -3.143808474460e-05
   271   -1.863030691583e-05
   272    3.245462788519e-05
   273   -2.052428549303e-05
   274    2.065427646141e-04
   275    8.367329920467e-05
   276    1.704324275439e-04
   277   -4.033133759922e-04
   278   -1.677168479888e-04
   279    3.617583460523e-05
   280   -4.498771084909e-05
   281   -6.397376265373e-05
   282    7.093048909360e-06
   283   -3.833853647990e-05
   284    9.469600562277e-05
   285   -2.460874574245e-05
Sym=X
Ene= -10.186840
Spin=Alpha
Occup=1
     1   -1.027877873334e-03
     2    8.303583440412e-04
     3   -1.779196253128e-03
     4    1.251058562824e-02
     5    6.260994484864e-03
     6   -1.597759378909e-04
     7   -8.203635121161e-05
     8   -1.081350139760e-15
     9    5.834937980515e-04
    10    7.505883447159e-05
    11    5.813901801056e-15
    12    1.488645994209e-02
    13    8.631816863885e-03
    14   -2.078707960428e-14
    15    2.348693726431e-03
    16    1.571872962777e-03
    17    2.636503550744e-15
    18    1.550012710333e-07
    19   -5.027394651838e-17
    20   -1.836594010961e-16
    21   -1.762121499094e-04
    22   -1.089992311476e-04
    23   -1.153133154219e-03
    24    1.480810103444e-15
    25    1.030120812869e-15
    26    2.070735648190e-03
    27    1.782153724904e-03
    28   -1.093689189748e-03
    29   -1.325711128670e-14
    30   -1.022801008249e-14
    31    3.119117492897e-03
    32    3.257909349735e-03
    33   -3.450346358993e-16
    34   -1.406768131596e-04
    35    2.206472272562e-05
    36    3.098808627641e-16
    37    3.062888077930e-16
    38    1.182210356606e-04
    39    3.884573631882e-04
    40    5.437789738080e-15
    41   -4.124307556575e-04
    42   -8.912515730040e-04
    43   -9.535719043270e-16
    44    2.051937314724e-16
    45    7.451089535356e-04
    46   -1.386054038031e-03
    47   -1.227705340569e-04
    48    7.013636091173e-16
    49   -2.715079409129e-17
    50    1.771552262225e-04
    51    3.454020648947e-06
    52   -1.328278951402e-15
    53   -6.181663389721e-16
    54   -8.560940054162e-05
    55   -1.712155330897e-04
    56    2.469866658126e-06
    57    4.378762268911e-06
    58   -5.001834882710e-05
    59    1.595840974000e-03
    60    4.847464293245e-04
    61   -4.314885113972e-05
    62   -1.697543474549e-05
    63   -3.000948528965e-16
    64    2.406650448297e-04
    65    7.386301312442e-05
    66    6.040554516677e-16
    67   -3.125024833037e-04
    68   -1.024256874600e-03
    69    1.399254383151e-15
    70    2.590485900871e-05
    71   -1.030267682244e-04
    72    2.629651265959e-15
    73    5.536070208097e-06
    74   -2.041679745732e-16
    75   -2.795091200118e-16
    76    8.745124683361e-06
    77   -5.488327975266e-06
    78   -5.197989387253e-05
    79    2.235038309349e-16
    80   -3.658352239850e-16
    81   -2.344715092735e-06
    82    1.553891391883e-05
    83    5.119548484789e-04
    84    2.780848976384e-15
    85    9.532114918079e-16
    86   -7.486586579191e-04
    87   -4.571177619139e-04
    88   -2.786489580538e-16
    89   -4.373095277456e-05
    90    1.385205398818e-05
    91    2.396004215481e-16
    92    2.761495755847e-16
    93    5.478133276887e-05
    94    3.418835535690e-05
    95    1.099973925963e-16
    96    2.279991127958e-04
    97   -7.297268248124e-05
    98    5.973907383583e-16
    99   -4.998489652513e-16
   100   -1.903260719862e-04
   101   -1.198971984514e-04
   102   -4.428015017425e-06
   103    3.192885400719e-17
   104   -1.893104872828e-16
   105    1.449314253073e-05
   106   -5.705845025302e-06
   107    2.441940929793e-16
   108   -1.712742970996e-17
   109    2.745612791724e-05
   110   -3.731362185233e-05
   111   -1.227241427048e-04
   112    1.835391202771e-03
   113    3.568953587027e-03
   114    3.343102887029e-04
   115    3.705322283333e-05
   116    4.490989223508e-05
   117   -5.963728694535e-16
   118    1.870063399438e-04
   119    5.393382796376e-04
   120    3.771939146319e-15
   121    5.615306773845e-04
   122    8.813813272316e-04
   123   -2.375377692666e-15
   124   -4.482228218581e-05
   125   -3.686263034253e-16
   126    4.449541363683e-16
   127    1.874298732753e-06
   128    9.578547712711e-05
   129    2.570830622395e-04
   130    1.736918138343e-15
   131    1.409797561064e-15
   132   -3.145449962379e-05
   133    1.670406764208e-04
   134   -2.948374914464e-16
   135   -2.020627550804e-05
   136    8.906741362024e-05
   137   -1.789782801305e-16
   138    9.202165938971e-18
   139   -1.271611343308e-04
   140    3.206705289066e-06
   141    6.266266252761e-01
   142   -3.982944352744e-01
   143    5.857226482542e-02
   144   -4.400157160890e-02
   145   -6.383257735883e-03
   146   -2.800404103544e-04
   147   -2.212987814879e-04
   148    3.687512619609e-15
   149    2.195539231443e-03
   150    6.120640149810e-04
   151   -2.535793366194e-14
   152    1.095197105260e-02
   153    5.736286694264e-03
   154   -3.811521868388e-13
   155    2.363713790915e-03
   156    8.765429681194e-04
   157   -1.037081458579e-13
   158    3.686210997038e-05
   159    2.775259405965e-15
   160    1.998843595524e-15
   161   -1.340171748552e-04
   162   -1.032365690952e-04
   163    1.302515448752e-03
   164   -6.041469950181e-14
   165    2.789524796050e-14
   166   -1.765847667552e-03
   167   -1.813906635290e-03
   168    8.691722012591e-04
   169   -1.306251724083e-13
   170    5.823636115444e-14
   171   -2.504888143868e-03
   172   -1.026196908845e-03
   173   -3.510450122864e-15
   174    1.450031485295e-03
   175   -1.402659734984e-03
   176   -1.465976862472e-16
   177    3.734974840259e-15
   178   -1.221440211210e-04
   179   -1.195235649909e-03
   180   -1.438376463292e-14
   181   -4.211165729041e-03
   182    2.419573124063e-03
   183   -1.114939981702e-14
   184    1.535315657161e-14
   185    3.680166020333e-04
   186    3.328798177836e-03
   187   -2.442663975780e-04
   188   -6.580050089869e-15
   189    5.017931599752e-15
   190    1.482700367781e-04
   191    3.319313382916e-04
   192   -1.383035396277e-15
   193    1.096261857012e-15
   194    8.392060968889e-07
   195   -3.543557789184e-04
   196    4.787207212335e-04
   197    2.114274219527e-03
   198    3.163146319584e-05
   199   -2.712402113387e-04
   200    1.339838081737e-04
   201   -7.293387391637e-04
   202    4.363236117896e-16
   203   -6.337794019335e-04
   204    2.308854930843e-03
   205   -1.464904095244e-15